
include ${pot}.lmp
include kalj.lmp
units lj
atom_style atomic

variable dimensions equal 3
variable density equal 1.2
variable fraca equal 0.8

dimension ${dimensions}
dimension 3
read_restart ${prevbasename}.final.lmprestart.${steps}
read_restart equil/kalj_T1.5_n360_v300_10000_1.final.lmprestart.${steps}
read_restart equil/kalj_T1.5_n360_v300_10000_1.final.lmprestart.10000
Reading restart file ...
  restart file = 15 Sep 2022, LAMMPS = 15 Sep 2022
  restoring atom style atomic from restart
  orthogonal box = (0 0 0) to (6.6943295 6.6943295 6.6943295)
  1 by 2 by 2 MPI processor grid
  restoring pair style lj/cut from restart
  360 atoms
  read_restart CPU = 0.064 seconds
include ${pot}_particles.lmp
include kalj_particles.lmp
mass * 1.0 #  set mass 1.0 for all types

pair_style lj/cut 2.5
#pair coeffs type1 type2 eps sigma
pair_coeff 1 1 1.0 1.00 2.5
pair_coeff 1 2 1.5 0.80 2.0
pair_coeff 2 2 0.5 0.88 2.2
pair_modify shift yes
reset_timestep 0

print "Setting up equilibration run"
Setting up equilibration run
variable dumptime2 equal ${steps}/2000
variable dumptime2 equal 10000/2000
dump 1 all dcd ${dumptime2} ${basename}.unwrap.dcd
dump 1 all dcd 5 ${basename}.unwrap.dcd
dump 1 all dcd 5 prod/kalj_T1.5_n360_v300_prod_10000_1.unwrap.dcd
#dump 2 all dcd ${dumptime2} ${basename}.dcd
dump_modify 1 unwrap yes
#dump_modify 2 unwrap no

restart ${restarttime} ${basename}.restart
restart 10000 ${basename}.restart
restart 10000 prod/kalj_T1.5_n360_v300_prod_10000_1.restart
restart ${steps} ${basename}.final.lmprestart
restart 10000 ${basename}.final.lmprestart
restart 10000 prod/kalj_T1.5_n360_v300_prod_10000_1.final.lmprestart

thermo ${thermotime}
thermo 1000
timestep ${timestep}
timestep 0.002

neighbor 0.5 bin
neigh_modify every 1 delay ${neighborstep} check yes
neigh_modify every 1 delay 20 check yes

#velocity all create ${temp} ${id} dist gaussian
fix 1 all nvt temp ${temp} ${temp} ${taut}
fix 1 all nvt temp 1.5 ${temp} ${taut}
fix 1 all nvt temp 1.5 1.5 ${taut}
fix 1 all nvt temp 1.5 1.5 0.2
Resetting global fix info from restart file:
  fix style: nvt, fix ID: 1

variable steps4 equal ${steps}/4
variable steps4 equal 10000/4
run ${steps4}
run 2500
Generated 0 of 1 mixed pair_coeff terms from geometric mixing rule
All restart file global fix info was re-assigned
Neighbor list info ...
  update: every = 1 steps, delay = 20 steps, check = yes
  max neighbors/atom: 2000, page size: 100000
  master list distance cutoff = 3
  ghost atom cutoff = 3
  binsize = 1.5, bins = 5 5 5
  1 neighbor lists, perpetual/occasional/extra = 1 0 0
  (1) pair lj/cut, perpetual
      attributes: half, newton on
      pair build: half/bin/atomonly/newton
      stencil: half/bin/3d
      bin: standard
Per MPI rank memory allocation (min/avg/max) = 3.138 | 3.138 | 3.138 Mbytes
   Step          Temp          E_pair         E_mol          TotEng         Press     
         0   1.5401862     -5.3385509      0             -3.0346891      14.460129    
      1000   1.4651922     -5.3235843      0             -3.1319009      14.56903     
      2000   1.6039063     -5.3174248      0             -2.9182484      14.790532    
      2500   1.5224545     -5.0933658      0             -2.8160277      16.068812    
Loop time of 0.292016 on 4 procs for 2500 steps with 360 atoms

Performance: 1479371.201 tau/day, 8561.176 timesteps/s, 3.082 Matom-step/s
99.3% CPU use with 4 MPI tasks x 1 OpenMP threads

MPI task timing breakdown:
Section |  min time  |  avg time  |  max time  |%varavg| %total
---------------------------------------------------------------
Pair    | 0.1304     | 0.13966    | 0.16201    |   3.5 | 47.83
Neigh   | 0.014253   | 0.015223   | 0.01769    |   1.2 |  5.21
Comm    | 0.081167   | 0.1039     | 0.11298    |   4.1 | 35.58
Output  | 0.014957   | 0.018525   | 0.025075   |   2.9 |  6.34
Modify  | 0.0085536  | 0.0093422  | 0.010132   |   0.8 |  3.20
Other   |            | 0.005371   |            |       |  1.84

Nlocal:             90 ave          93 max          84 min
Histogram: 1 0 0 0 0 0 1 0 0 2
Nghost:        1233.25 ave        1249 max        1221 min
Histogram: 1 0 1 0 1 0 0 0 0 1
Neighs:           5191 ave        5417 max        4921 min
Histogram: 1 0 0 0 1 0 0 1 0 1

Total # of neighbors = 20764
Ave neighs/atom = 57.677778
Neighbor list builds = 85
Dangerous builds = 0
Total wall time: 0:00:00
