#     Step Nr.          Time[fs]        Kin.[a.u.]          Temp[K]            Pot.[a.u.]        Cons Qty[a.u.]        UsedTime[s]
         0            0.000000         0.275037913       300.000000000     -1103.053646825     -1102.778608913         0.000000000
         1            0.500000         0.278645040       303.934505353     -1103.058463296     -1102.778671620        94.848766103
         2            1.000000         0.272006027       296.692944714     -1103.068644046     -1102.778868766        18.188723616
         3            1.500000         0.283097735       308.791321992     -1103.083437338     -1102.779174585        14.579571515
         4            2.000000         0.283785557       309.541568930     -1103.095655372     -1102.779342568        13.261552159
         5            2.500000         0.304479394       332.113551963     -1103.107188004     -1102.779451953        16.000248428
         6            3.000000         0.333520460       363.790348273     -1103.114964535     -1102.779460695        13.919297460
         7            3.500000         0.336398008       366.929059375     -1103.118778961     -1102.779325212        11.473357126
         8            4.000000         0.332545810       362.727239916     -1103.119800725     -1102.779140570        11.471685376
         9            4.500000         0.328742330       358.578561134     -1103.120790789     -1102.779052729        11.170963958
        10            5.000000         0.325847778       355.421303794     -1103.123483752     -1102.779092958        14.388638053
        11            5.500000         0.343164619       374.309798447     -1103.130528627     -1102.779282125         9.897070739
        12            6.000000         0.341567966       372.568235535     -1103.135751954     -1102.779508062         9.477946237
        13            6.500000         0.331119977       361.172000311     -1103.138002803     -1102.779584250         9.797914229
        14            7.000000         0.319394691       348.382542591     -1103.135763219     -1102.779453655        10.046238430
        15            7.500000         0.330404364       360.391439255     -1103.130351944     -1102.779174624        10.215962332
        16            8.000000         0.333628167       363.907830913     -1103.129844558     -1102.779116929        10.951967631
        17            8.500000         0.316892776       345.653557401     -1103.131505456     -1102.779332625        10.426391531
        18            9.000000         0.302577695       330.039258217     -1103.134042442     -1102.779561403         9.729828451
        19            9.500000         0.300200019       327.445787228     -1103.132291359     -1102.779581843        11.267707679
        20           10.000000         0.297605501       324.615793675     -1103.130364875     -1102.779531587        14.040256243
        21           10.500000         0.302647212       330.115083571     -1103.128404953     -1102.779437700        10.431103971
        22           11.000000         0.296002607       322.867423025     -1103.126226177     -1102.779368438        10.507021312
        23           11.500000         0.299704291       326.905067057     -1103.125868638     -1102.779388269         9.997666284
        24           12.000000         0.291329335       317.770010455     -1103.125563007     -1102.779384967        10.267398112
        25           12.500000         0.273543494       298.369949744     -1103.124230984     -1102.779341749        10.068663333
        26           13.000000         0.265110885       289.172007934     -1103.123380648     -1102.779300312         9.472326912
        27           13.500000         0.281111683       306.625017920     -1103.124803778     -1102.779265060         9.526518300
        28           14.000000         0.272041825       296.731991908     -1103.130304060     -1102.779294614         9.850961335
        29           14.500000         0.280549999       306.012355968     -1103.139049312     -1102.779406342        10.319396265
        30           15.000000         0.301853538       329.249376928     -1103.146721876     -1102.779529407        16.017126556
        31           15.500000         0.315879588       344.548413043     -1103.152096224     -1102.779616486        11.107360803
        32           16.000000         0.315550281       344.189218672     -1103.154350872     -1102.779659690        11.560284335
        33           16.500000         0.292782534       319.355100221     -1103.153243608     -1102.779647290        11.013747752
        34           17.000000         0.302364886       329.807134458     -1103.151205302     -1102.779608573        10.082004536
        35           17.500000         0.291438810       317.889421825     -1103.147120426     -1102.779529426         9.805670887
        36           18.000000         0.290815066       317.209067127     -1103.145916791     -1102.779544225         9.592704203
        37           18.500000         0.305045724       332.731281578     -1103.144629226     -1102.779533674         9.708877947
        38           19.000000         0.278624731       303.912353881     -1103.141650856     -1102.779469674        10.234853018
        39           19.500000         0.283634103       309.376369589     -1103.141869059     -1102.779420276         9.143878434
        40           20.000000         0.281287306       306.816579916     -1103.149258489     -1102.779586662        14.780501276
        41           20.500000         0.305522391       333.251211004     -1103.158912892     -1102.779792613         9.628622811
        42           21.000000         0.310269266       338.428905340     -1103.167628028     -1102.779989562         9.853312619
        43           21.500000         0.304921724       332.596027734     -1103.172199505     -1102.780062011        10.403872646
        44           22.000000         0.288883381       315.102064913     -1103.175043566     -1102.780054718         9.977101531
        45           22.500000         0.292367360       318.902245512     -1103.174475899     -1102.779980458         9.732792199
        46           23.000000         0.285444814       311.351418113     -1103.175066162     -1102.779979903         9.561137218
        47           23.500000         0.282288797       307.908965591     -1103.177735458     -1102.780018581         9.704943601
        48           24.000000         0.295982883       322.845908645     -1103.180717163     -1102.780061462        10.068859547
        49           24.500000         0.296966364       323.918649362     -1103.184001377     -1102.780087576        10.240312595
        50           25.000000         0.297350184       324.337304778     -1103.185430321     -1102.780111339        14.781292383
        51           25.500000         0.288105842       314.253958122     -1103.185499878     -1102.780089546        10.726159774
        52           26.000000         0.278137184       303.380557445     -1103.187975332     -1102.780153491        10.019193128
        53           26.500000         0.288568878       314.759018225     -1103.188597134     -1102.780189147        10.395734221
        54           27.000000         0.291552144       318.013042267     -1103.189199921     -1102.780181235        10.001256093
        55           27.500000         0.282457774       308.093278427     -1103.189403752     -1102.780121923         9.488217343
        56           28.000000         0.260643772       284.299465666     -1103.191175533     -1102.780094538         9.607209079
        57           28.500000         0.277951511       303.178032353     -1103.192813317     -1102.780126780         9.991953690
        58           29.000000         0.276824142       301.948345478     -1103.190402528     -1102.780061952        10.479799241
        59           29.500000         0.281913071       307.499138954     -1103.188411386     -1102.780000304         9.915322497
        60           30.000000         0.278181575       303.428977190     -1103.187907137     -1102.779960558        13.823041502
        61           30.500000         0.287673462       313.782335128     -1103.191284165     -1102.780029426         9.829382677
        62           31.000000         0.299559535       326.747173377     -1103.192611637     -1102.780032762        10.225384079
        63           31.500000         0.305963360       333.732201351     -1103.192564988     -1102.780021068        10.208439995
        64           32.000000         0.308017056       335.972288242     -1103.191615409     -1102.779999365        10.025138546
        65           32.500000         0.309380057       337.458993245     -1103.188857237     -1102.779967472         9.459373675
        66           33.000000         0.309244604       337.311247232     -1103.182753828     -1102.779815308         9.597172134
        67           33.500000         0.314551686       343.099993227     -1103.180367146     -1102.779719986        10.339908496
        68           34.000000         0.322007992       351.233023355     -1103.181458518     -1102.779757601        10.993437465
        69           34.500000         0.329439902       359.339444150     -1103.184674732     -1102.779810960         9.320292309
        70           35.000000         0.339226866       370.014660329     -1103.187123063     -1102.779808416        12.440959670
        71           35.500000         0.332682677       362.876528679     -1103.188473291     -1102.779797607         9.655180693
        72           36.000000         0.328059937       357.834235727     -1103.191647938     -1102.779844012        10.142271008
        73           36.500000         0.325482577       355.022957377     -1103.192528364     -1102.779854389        10.595350437
        74           37.000000         0.302343864       329.784204408     -1103.192933678     -1102.779868883         9.969702456
        75           37.500000         0.314863275       343.439861020     -1103.194560883     -1102.779913870         9.479484696
        76           38.000000         0.309061012       337.110992416     -1103.193877597     -1102.779859202         9.589403134
        77           38.500000         0.291595065       318.059858706     -1103.192421491     -1102.779751424         9.799394093
        78           39.000000         0.297267364       324.246968179     -1103.191837178     -1102.779673693        10.436949886
        79           39.500000         0.298147428       325.206905662     -1103.192350685     -1102.779639649        10.305327654
        80           40.000000         0.288985302       315.213236681     -1103.193569800     -1102.779639517        13.002157912
        81           40.500000         0.308406812       336.397417556     -1103.196691164     -1102.779724237         8.683994971
        82           41.000000         0.297834359       324.865423152     -1103.199697635     -1102.779806843         9.987726562
        83           41.500000         0.303760816       331.329756698     -1103.202332492     -1102.779901049         9.427622452
        84           42.000000         0.306526400       334.346341696     -1103.204405107     -1102.779994953         9.895491142
        85           42.500000         0.301684275       329.064751665     -1103.201348277     -1102.779972559         9.629316475
        86           43.000000         0.296572869       323.489441299     -1103.199934426     -1102.779934256         9.768069029
        87           43.500000         0.290461030       316.822900291     -1103.200139850     -1102.779948948         9.899493050
        88           44.000000         0.300206189       327.452516743     -1103.200279935     -1102.779975441         9.512455635
        89           44.500000         0.303408591       330.945564758     -1103.199156632     -1102.779994145         9.950041316
        90           45.000000         0.303083572       330.591047051     -1103.196687715     -1102.779974197        14.424504645
        91           45.500000         0.303641576       331.199695671     -1103.194251771     -1102.779917945         9.661878046
        92           46.000000         0.301223595       328.562260831     -1103.190066018     -1102.779806672         9.943181623
        93           46.500000         0.275577200       300.588232988     -1103.185378597     -1102.779673540        10.341706365
        94           47.000000         0.266833814       291.051308345     -1103.183140755     -1102.779602348         9.999615613
        95           47.500000         0.285852899       311.796540563     -1103.187557698     -1102.779694889         9.683536172
        96           48.000000         0.286530355       312.535482034     -1103.193042192     -1102.779802735         9.600247901
        97           48.500000         0.295472117       322.288786261     -1103.197959325     -1102.779884594         9.828660902
        98           49.000000         0.289433910       315.702559959     -1103.200043807     -1102.779919624         9.451103769
        99           49.500000         0.295251720       322.048386851     -1103.197266729     -1102.779829313         9.016110081
       100           50.000000         0.261244864       284.955111802     -1103.193984803     -1102.779735586        14.181312349
       101           50.500000         0.270786168       295.362372157     -1103.193000296     -1102.779645296         8.620762013
       102           51.000000         0.283961810       309.733819175     -1103.193072957     -1102.779598933         8.957324158
       103           51.500000         0.281515344       307.065315106     -1103.191550864     -1102.779536007         9.525479615
       104           52.000000         0.273807973       298.658432197     -1103.191965078     -1102.779568874        10.041766495
       105           52.500000         0.279135517       304.469497231     -1103.194586948     -1102.779675298         9.717720788
       106           53.000000         0.281871418       307.453705150     -1103.198843773     -1102.779809485         9.526271887
       107           53.500000         0.290385730       316.740765279     -1103.202510351     -1102.779911947         8.800753936
       108           54.000000         0.287308092       313.383805604     -1103.205485728     -1102.780000784         9.086105321
       109           54.500000         0.295798415       322.644699248     -1103.207151204     -1102.780017958         9.346115608
       110           55.000000         0.289616565       315.901792065     -1103.204404243     -1102.779925903        13.145310871
       111           55.500000         0.292355240       318.889025743     -1103.200508825     -1102.779828032         8.540978450
       112           56.000000         0.304765476       332.425598575     -1103.197081248     -1102.779755510         8.636251818
       113           56.500000         0.286169348       312.141710341     -1103.194165670     -1102.779708344         9.157678124
       114           57.000000         0.282671315       308.326200326     -1103.193686666     -1102.779720023        10.210210089
       115           57.500000         0.296960928       323.912719620     -1103.194243296     -1102.779731097         9.139697101
       116           58.000000         0.296203876       323.086959516     -1103.194172200     -1102.779723835         8.587690432
       117           58.500000         0.274314360       299.210778472     -1103.197042641     -1102.779797867         8.780924186
       118           59.000000         0.288180552       314.335448157     -1103.200083690     -1102.779866946         8.806778371
       119           59.500000         0.300772334       328.070044830     -1103.200015891     -1102.779900193         9.136657264
       120           60.000000         0.296059844       322.929854610     -1103.198042417     -1102.779838766        13.179487132
       121           60.500000         0.275936459       300.980097849     -1103.196561342     -1102.779780005         8.883827850
       122           61.000000         0.284091839       309.875648672     -1103.197212108     -1102.779791291         8.539310001
       123           61.500000         0.283629672       309.371536229     -1103.199720661     -1102.779865580         8.604679972
       124           62.000000         0.291844223       318.331629926     -1103.200015601     -1102.779884603         9.185256150
       125           62.500000         0.291991965       318.492780545     -1103.200443761     -1102.779866846         9.283729024
       126           63.000000         0.296270700       323.159848303     -1103.200337059     -1102.779762288         9.034448814
       127           63.500000         0.312123437       340.451358447     -1103.203175368     -1102.779745404         8.694296584
       128           64.000000         0.306289047       334.087446715     -1103.203320932     -1102.779751269         8.646737415
       129           64.500000         0.306584027       334.409199651     -1103.204501693     -1102.779779343         8.787528735
       130           65.000000         0.317379816       346.184800583     -1103.205900011     -1102.779841575        12.842422970
       131           65.500000         0.299974933       327.200272511     -1103.205287158     -1102.779847768         9.025782574
       132           66.000000         0.293482686       320.118797217     -1103.203128906     -1102.779834773         8.921558421
       133           66.500000         0.300892501       328.201117398     -1103.196344260     -1102.779704071         8.515176736
       134           67.000000         0.293541714       320.183182787     -1103.190151580     -1102.779567379         8.675961621
       135           67.500000         0.293383621       320.010740812     -1103.184870156     -1102.779432874         9.129043464
       136           68.000000         0.293584640       320.230004550     -1103.181809113     -1102.779359346         9.285708077
       137           68.500000         0.295167128       321.956116991     -1103.181691775     -1102.779350215         8.447344691
       138           69.000000         0.281263618       306.790742531     -1103.183612116     -1102.779421218         8.692830570
       139           69.500000         0.279846446       305.244949364     -1103.188123932     -1102.779557840         8.871791985
       140           70.000000         0.300903727       328.213361980     -1103.194575232     -1102.779772199        12.643230300
       141           70.500000         0.297147070       324.115756011     -1103.197426415     -1102.779916920         9.154925242
       142           71.000000         0.307518332       335.428300144     -1103.194706305     -1102.779946378         9.603597220
       143           71.500000         0.284493819       310.314112651     -1103.187418183     -1102.779843851         8.742477156
       144           72.000000         0.290572878       316.944898521     -1103.180544602     -1102.779651493         8.910119463
       145           72.500000         0.286313675       312.299136636     -1103.172396448     -1102.779389116         9.433293257
       146           73.000000         0.267218167       291.470544364     -1103.169628130     -1102.779320420         9.957863979
       147           73.500000         0.271657918       296.313241217     -1103.171432959     -1102.779436623         8.965578876
       148           74.000000         0.273212888       298.009339091     -1103.175758874     -1102.779599794         8.487025224
       149           74.500000         0.280299922       305.739582702     -1103.180825223     -1102.779761829         8.700510915
       150           75.000000         0.285389278       311.290842033     -1103.186452745     -1102.779912231        12.964570049
       151           75.500000         0.299751849       326.956941483     -1103.190700151     -1102.779986716         9.210515965
       152           76.000000         0.289295867       315.551987754     -1103.191394747     -1102.779906651         9.866897907
       153           76.500000         0.277342239       302.513464204     -1103.189512282     -1102.779745219         8.457026575
       154           77.000000         0.269040135       293.457872278     -1103.186775025     -1102.779597812         8.674533159
       155           77.500000         0.262594427       286.427160200     -1103.189228715     -1102.779617564         8.972342752
       156           78.000000         0.266990627       291.222353644     -1103.192988324     -1102.779671896         9.440059114
       157           78.500000         0.271213892       295.828916394     -1103.200441339     -1102.779789857        10.046044394
       158           79.000000         0.294610197       321.348639313     -1103.207858207     -1102.779925718         9.691618498
       159           79.500000         0.298730119       325.842480489     -1103.211122679     -1102.779956731         9.606857326
       160           80.000000         0.301416502       328.772675786     -1103.209392318     -1102.779929729        14.428798728
       161           80.500000         0.285983473       311.938965455     -1103.204911750     -1102.779841340        10.180462237
       162           81.000000         0.273179867       297.973320348     -1103.197821706     -1102.779695652        10.383886252
       163           81.500000         0.285818221       311.758715779     -1103.192460841     -1102.779585089         9.629950564
       164           82.000000         0.284569652       310.396828018     -1103.188747714     -1102.779508850         9.695716254
       165           82.500000         0.291182672       317.610037179     -1103.185896708     -1102.779478335        10.107409649
       166           83.000000         0.288335601       314.504569555     -1103.187817875     -1102.779543078        10.425021317
       167           83.500000         0.282473319       308.110234910     -1103.188909352     -1102.779560769        10.102166265
       168           84.000000         0.292324616       318.855622640     -1103.190985471     -1102.779622993         9.463154029
       169           84.500000         0.280154624       305.581097886     -1103.191877059     -1102.779652090         9.649561293
       170           85.000000         0.290002039       316.322251588     -1103.191830500     -1102.779638932        14.206592306
       171           85.500000         0.267910822       292.226063401     -1103.190082718     -1102.779564011        10.382316630
       172           86.000000         0.265371053       289.455788911     -1103.191035100     -1102.779534830         9.947265081
       173           86.500000         0.277737103       302.944165091     -1103.194717623     -1102.779584448         8.451490600
       174           87.000000         0.284915343       310.773893612     -1103.199016128     -1102.779622855         9.618857823
       175           87.500000         0.271399369       296.031227026     -1103.203897268     -1102.779682445        10.118681125
       176           88.000000         0.276108142       301.167361858     -1103.208741277     -1102.779724094        10.344305396
       177           88.500000         0.290725110       317.110947156     -1103.214334078     -1102.779781838         8.977523308
       178           89.000000         0.297070646       324.032396346     -1103.217288854     -1102.779755981         8.773121439
       179           89.500000         0.306498851       334.316292360     -1103.220094968     -1102.779731340         8.710121214
       180           90.000000         0.306872839       334.724223946     -1103.221996553     -1102.779713818        13.857026074
       181           90.500000         0.326082228       355.677032414     -1103.224931154     -1102.779801556        10.232391454
       182           91.000000         0.309525732       337.617889478     -1103.229123779     -1102.779921877        10.126696125
       183           91.500000         0.314937402       343.520715637     -1103.229867254     -1102.779930404         8.566116765
       184           92.000000         0.298404468       325.487274286     -1103.229446999     -1102.779912283         9.644345097
       185           92.500000         0.285851436       311.794945376     -1103.228083092     -1102.779912414         9.820576306
       186           93.000000         0.289183453       315.429371541     -1103.225384397     -1102.779877055        10.482859720
       187           93.500000         0.277545205       302.734851118     -1103.221103280     -1102.779809463         9.900994767
       188           94.000000         0.283489471       309.218611051     -1103.217220324     -1102.779721750         8.796311256
       189           94.500000         0.273799532       298.649226088     -1103.214874255     -1102.779708197         9.594791662
       190           95.000000         0.264321875       288.311388191     -1103.211994206     -1102.779681988        16.555804823
       191           95.500000         0.270077606       294.589502696     -1103.211971557     -1102.779725722         9.396119125
       192           96.000000         0.252841060       275.788590032     -1103.214884113     -1102.779811380         9.285981007
       193           96.500000         0.281210453       306.732752751     -1103.213190988     -1102.779752017         8.585354663
       194           97.000000         0.280065673       305.484073151     -1103.211879423     -1102.779718965         9.667393759
       195           97.500000         0.276629109       301.735611568     -1103.209677527     -1102.779664393         9.298402816
       196           98.000000         0.272190323       296.893967263     -1103.206413080     -1102.779619657        11.164758239
       197           98.500000         0.270692691       295.260411872     -1103.205805242     -1102.779648555        11.169595283
       198           99.000000         0.259848321       283.431821087     -1103.205554769     -1102.779639791         8.849642973
       199           99.500000         0.259542202       283.097918552     -1103.204454380     -1102.779585138         9.705270268
       200          100.000000         0.264016708       287.978525519     -1103.202374304     -1102.779513337        13.655422181
       201          100.500000         0.260182892       283.796756679     -1103.200146683     -1102.779461336        10.295474995
       202          101.000000         0.264486377       288.490820620     -1103.201530490     -1102.779518431        10.044434249
       203          101.500000         0.278269197       303.524552167     -1103.202082298     -1102.779527082         9.469308529
       204          102.000000         0.284561679       310.388130809     -1103.204823863     -1102.779550737         9.567854077
       205          102.500000         0.283577054       309.314142581     -1103.207269693     -1102.779561646         9.877805520
       206          103.000000         0.291168038       317.594074791     -1103.210697583     -1102.779625104        10.459771045
       207          103.500000         0.279059676       304.386773900     -1103.214449906     -1102.779731338         9.931420427
       208          104.000000         0.287508308       313.602192184     -1103.215513060     -1102.779805915         9.680175181
       209          104.500000         0.288131486       314.281929645     -1103.215368714     -1102.779820916         8.699388962
       210          105.000000         0.284209117       310.003571350     -1103.212970359     -1102.779776992        14.019718595
       211          105.500000         0.265049403       289.104946473     -1103.209307015     -1102.779637739         9.285890777
       212          106.000000         0.255874318       279.097142673     -1103.207380338     -1102.779506794         8.475225560
       213          106.500000         0.266529650       290.719537965     -1103.209651465     -1102.779502008         8.715581931
       214          107.000000         0.286577747       312.587175028     -1103.214214298     -1102.779602308         9.184810963
       215          107.500000         0.291730347       318.207418197     -1103.221200008     -1102.779804037         9.270922951
       216          108.000000         0.297600943       324.610821899     -1103.228740062     -1102.780002251         9.012854692
       217          108.500000         0.306554084       334.376538274     -1103.232788255     -1102.780053847         8.757436447
       218          109.000000         0.284729324       310.570991224     -1103.230917070     -1102.779943021         8.682355352
       219          109.500000         0.272776088       297.532895687     -1103.227457485     -1102.779820145         8.739414148
       220          110.000000         0.282110196       307.714154489     -1103.226627899     -1102.779756180        14.058212053
       221          110.500000         0.282254357       307.871399511     -1103.229314727     -1102.779766727         9.009957932
       222          111.000000         0.278424866       303.694348594     -1103.233014630     -1102.779774861         8.950696964
       223          111.500000         0.279225218       304.567340314     -1103.237047691     -1102.779804134         8.553680547
       224          112.000000         0.273285522       298.088564868     -1103.240207948     -1102.779881711         8.632928960
       225          112.500000         0.276754253       301.872112811     -1103.246020465     -1102.780026786         9.111761618
       226          113.000000         0.291677797       318.150098863     -1103.248827758     -1102.780062287         9.349697910
       227          113.500000         0.295297193       322.097987187     -1103.249954169     -1102.780008211         9.018692739