ITEM: TIMESTEP
100000
ITEM: NUMBER OF ATOMS
400
ITEM: BOX BOUNDS pp pp pp
0.0000000000000000e+00 1.9900743804199784e+01
0.0000000000000000e+00 1.9900743804199784e+01
-4.9751859510499458e-01 4.9751859510499458e-01
ITEM: ATOMS id type xs ys zs
150 1 0.133145 0.0298714 0.5
260 1 0.181706 0.0251563 0.5
347 1 0.242921 0.0143131 0.5
188 1 0.072889 0.402434 0.5
64 1 0.0110621 0.0815973 0.5
86 1 0.00411246 0.223355 0.5
222 1 0.0286127 0.0303069 0.5
92 1 0.0856905 0.0284677 0.5
65 1 0.219093 0.0605041 0.5
334 1 0.269166 0.0579561 0.5
281 1 0.318887 0.0468492 0.5
163 1 0.368992 0.0407149 0.5
354 1 0.42117 0.0539273 0.5
126 1 0.467267 0.0296063 0.5
381 1 0.282639 0.491231 0.5
255 1 0.062 0.0725838 0.5
138 1 0.112468 0.0734294 0.5
88 1 0.162486 0.0712923 0.5
295 1 0.358485 0.0904478 0.5
368 1 0.425473 0.106347 0.5
8 1 0.465783 0.0758717 0.5
120 1 0.0985294 0.119906 0.5
308 1 0.147369 0.12119 0.5
395 1 0.199976 0.116699 0.5
37 1 0.248352 0.105074 0.5
135 1 0.303622 0.0938338 0.5
319 1 0.0459819 0.130653 0.5
155 1 0.18381 0.164326 0.5
39 1 0.236437 0.160718 0.5
20 1 0.282112 0.140839 0.5
83 1 0.333522 0.14637 0.5
110 1 0.382102 0.143954 0.5
74 1 0.431836 0.154992 0.5
332 1 0.0241029 0.487485 0.5
275 1 0.0301238 0.176616 0.5
81 1 0.0789632 0.168042 0.5
230 1 0.129949 0.169532 0.5
108 1 0.308755 0.201231 0.5
148 1 0.356613 0.187264 0.5
14 1 0.414251 0.198125 0.5
38 1 0.467866 0.188174 0.5
391 1 0.415878 0.00363638 0.5
99 1 0.103438 0.211489 0.5
346 1 0.158101 0.218048 0.5
271 1 0.209237 0.207822 0.5
23 1 0.262497 0.206285 0.5
289 1 0.332596 0.488978 0.5
246 1 0.0553681 0.217327 0.5
357 1 0.18237 0.259395 0.5
228 1 0.241381 0.252922 0.5
125 1 0.289256 0.253306 0.5
44 1 0.345388 0.236855 0.5
396 1 0.402823 0.248246 0.5
106 1 0.450351 0.233051 0.5
95 1 0.0316768 0.267012 0.5
199 1 0.0844809 0.258757 0.5
367 1 0.13403 0.261142 0.5
136 1 0.267289 0.301487 0.5
321 1 0.319636 0.293462 0.5
197 1 0.371606 0.301271 0.5
10 1 0.420137 0.290762 0.5
115 1 0.47545 0.279682 0.5
159 1 0.385596 0.488688 0.5
331 1 0.0660473 0.313013 0.5
198 1 0.121023 0.312169 0.5
43 1 0.168462 0.312111 0.5
206 1 0.216553 0.300492 0.5
50 1 0.452139 0.327845 0.5
103 1 0.451476 0.481141 0.5
251 1 0.197594 0.356031 0.5
290 1 0.241566 0.344126 0.5
132 1 0.296206 0.342637 0.5
369 1 0.347176 0.349735 0.5
2 1 0.399512 0.343057 0.5
371 1 0.0374349 0.354573 0.5
226 1 0.0917286 0.354906 0.5
112 1 0.147011 0.358944 0.5
173 1 0.275102 0.38651 0.5
175 1 0.322857 0.39151 0.5
358 1 0.382508 0.392231 0.5
301 1 0.429882 0.388257 0.5
195 1 0.477986 0.368386 0.5
283 1 0.498821 0.236651 0.5
72 1 0.0977269 0.449776 0.5
248 1 0.12143 0.401175 0.5
399 1 0.172457 0.396879 0.5
394 1 0.229209 0.399937 0.5
85 1 0.246307 0.444094 0.5
172 1 0.295406 0.435908 0.5
325 1 0.344635 0.443299 0.5
36 1 0.394496 0.441 0.5
114 1 0.446885 0.433232 0.5
21 1 0.230943 0.493462 0.5
102 1 0.0474509 0.445094 0.5
53 1 0.147771 0.449444 0.5
109 1 0.199142 0.448332 0.5
1 1 0.288186 0.00423397 0.5
212 1 0.497151 0.472241 0.5
342 1 0.013289 0.399676 0.5
117 1 0.493891 0.419024 0.5
7 1 0.0742398 0.49829 0.5
298 1 0.475118 0.129417 0.5
215 1 0.489921 0.929845 0.5
249 1 0.342367 0.914223 0.5
370 1 0.100756 0.980216 0.5
387 1 0.344497 0.998537 0.5
46 1 0.359611 0.532371 0.5
196 1 0.418784 0.523892 0.5
356 1 0.472332 0.527737 0.5
241 1 0.0376121 0.535374 0.5
284 1 0.48748 0.800512 0.5
123 1 0.137427 0.555994 0.5
250 1 0.211847 0.543805 0.5
68 1 0.261408 0.54009 0.5
286 1 0.309032 0.541707 0.5
237 1 0.260176 0.959138 0.5
183 1 0.182226 0.589855 0.5
326 1 0.231378 0.597154 0.5
30 1 0.288641 0.58372 0.5
263 1 0.34001 0.580026 0.5
45 1 0.393265 0.571336 0.5
365 1 0.443521 0.567374 0.5
176 1 0.0197228 0.607327 0.5
209 1 0.070047 0.603317 0.5
374 1 0.0880611 0.546634 0.5
42 1 0.259789 0.638704 0.5
341 1 0.316538 0.625321 0.5
258 1 0.375814 0.614635 0.5
293 1 0.425086 0.619364 0.5
128 1 0.473972 0.622244 0.5
146 1 0.208817 0.980419 0.5
300 1 0.0581265 0.662291 0.5
5 1 0.109797 0.656246 0.5
234 1 0.126457 0.606783 0.5
314 1 0.212068 0.644088 0.5
182 1 0.39424 0.673401 0.5
312 1 0.446416 0.671383 0.5
58 1 0.139767 0.694732 0.5
179 1 0.158031 0.64552 0.5
177 1 0.237541 0.686392 0.5
323 1 0.299187 0.681475 0.5
24 1 0.348704 0.664642 0.5
15 1 0.0256223 0.706461 0.5
337 1 0.0916439 0.703129 0.5
131 1 0.187736 0.686759 0.5
152 1 0.275788 0.726227 0.5
329 1 0.327297 0.71993 0.5
18 1 0.379255 0.730565 0.5
352 1 0.425624 0.720908 0.5
202 1 0.480139 0.70845 0.5
366 1 0.016589 0.834267 0.5
190 1 0.0680681 0.748926 0.5
56 1 0.118701 0.744564 0.5
28 1 0.175113 0.731238 0.5
310 1 0.450145 0.762796 0.5
309 1 0.0463362 0.793085 0.5
343 1 0.0999907 0.795711 0.5
78 1 0.15297 0.78742 0.5
225 1 0.199971 0.776506 0.5
240 1 0.22379 0.733093 0.5
210 1 0.305983 0.764177 0.5
168 1 0.354219 0.77195 0.5
378 1 0.402996 0.774958 0.5
264 1 0.177884 0.82922 0.5
238 1 0.253408 0.774168 0.5
386 1 0.277642 0.820638 0.5
118 1 0.338821 0.818276 0.5
345 1 0.387305 0.82464 0.5
247 1 0.440258 0.811119 0.5
105 1 0.308068 0.959354 0.5
66 1 0.00709864 0.752744 0.5
13 1 0.0679162 0.841273 0.5
379 1 0.128238 0.839333 0.5
376 1 0.256745 0.869978 0.5
364 1 0.422398 0.857279 0.5
134 1 0.469999 0.846292 0.5
307 1 0.0892433 0.887827 0.5
224 1 0.152569 0.887978 0.5
90 1 0.208447 0.867974 0.5
266 1 0.228338 0.815992 0.5
49 1 0.361309 0.866269 0.5
139 1 0.051916 0.986344 0.5
350 1 0.0320613 0.879746 0.5
192 1 0.230349 0.919534 0.5
398 1 0.283045 0.912399 0.5
119 1 0.308344 0.87102 0.5
60 1 0.419253 0.951244 0.5
98 1 0.445074 0.906778 0.5
254 1 0.0126598 0.933792 0.5
377 1 0.0718523 0.930936 0.5
142 1 0.121289 0.928537 0.5
294 1 0.17261 0.933256 0.5
207 1 0.158916 0.981956 0.5
315 1 0.392237 0.90772 0.5
51 1 0.368849 0.956268 0.5
292 1 0.46175 0.976739 0.5
211 1 0.493087 0.575854 0.5
302 1 0.00655754 0.663119 0.5
383 1 0.126545 0.501805 0.5
221 1 0.17657 0.506108 0.5
156 1 0.667669 0.0972121 0.5
187 1 0.580472 0.0310539 0.5
63 1 0.783745 0.491489 0.5
113 1 0.958667 0.413998 0.5
375 1 0.7431 0.0150996 0.5
393 1 0.996406 0.133656 0.5
41 1 0.753692 0.449352 0.5
216 1 0.787707 0.00657152 0.5
96 1 0.517215 0.0297941 0.5
147 1 0.612257 0.0868101 0.5
259 1 0.721523 0.0735329 0.5
162 1 0.770307 0.0595801 0.5
320 1 0.821285 0.0509298 0.5
127 1 0.869676 0.0495989 0.5
220 1 0.922022 0.0418404 0.5
253 1 0.973776 0.0454219 0.5
31 1 0.510468 0.0923449 0.5
54 1 0.5578 0.0911785 0.5
362 1 0.644212 0.143802 0.5
35 1 0.854953 0.0963189 0.5
52 1 0.903067 0.0879682 0.5
328 1 0.960962 0.0915959 0.5
280 1 0.532029 0.135953 0.5
270 1 0.582364 0.133766 0.5
82 1 0.699074 0.134008 0.5
193 1 0.754243 0.111749 0.5
167 1 0.801512 0.0965317 0.5
330 1 0.675421 0.187305 0.5
232 1 0.73767 0.168381 0.5
184 1 0.787982 0.154348 0.5
107 1 0.841932 0.154451 0.5
400 1 0.893159 0.144365 0.5
297 1 0.942345 0.140629 0.5
144 1 0.731871 0.49319 0.5
204 1 0.991035 0.450288 0.5
164 1 0.563071 0.179297 0.5
153 1 0.61168 0.18 0.5
77 1 0.717394 0.219168 0.5
351 1 0.767523 0.208228 0.5
361 1 0.815433 0.20501 0.5
267 1 0.871853 0.194916 0.5
208 1 0.918633 0.184397 0.5
213 1 0.974868 0.18232 0.5
101 1 0.557609 0.232299 0.5
265 1 0.608841 0.229805 0.5
316 1 0.658889 0.238206 0.5
299 1 0.894448 0.244945 0.5
217 1 0.9451 0.228331 0.5
6 1 0.583482 0.279976 0.5
141 1 0.631631 0.283505 0.5
219 1 0.689388 0.279096 0.5
245 1 0.736403 0.266763 0.5
231 1 0.788369 0.252951 0.5
205 1 0.844937 0.252396 0.5
76 1 0.527207 0.278932 0.5
244 1 0.660072 0.325167 0.5
276 1 0.764474 0.313784 0.5
129 1 0.814172 0.294373 0.5
390 1 0.867585 0.294989 0.5
137 1 0.923998 0.285106 0.5
288 1 0.976335 0.26485 0.5
318 1 0.556567 0.319107 0.5
25 1 0.608827 0.325568 0.5
349 1 0.717212 0.324193 0.5
269 1 0.846844 0.345256 0.5
278 1 0.895932 0.337528 0.5
336 1 0.951292 0.326036 0.5
149 1 0.529701 0.367423 0.5
235 1 0.58035 0.369253 0.5
33 1 0.63315 0.368785 0.5
130 1 0.691218 0.371656 0.5
359 1 0.749992 0.361733 0.5
233 1 0.798132 0.351159 0.5
160 1 0.599816 0.415977 0.5
94 1 0.66495 0.413199 0.5
324 1 0.777633 0.407352 0.5
201 1 0.833448 0.396597 0.5
122 1 0.880463 0.382936 0.5
34 1 0.984873 0.363678 0.5
360 1 0.892415 0.0033557 0.5
363 1 0.51738 0.191265 0.5
313 1 0.54617 0.419896 0.5
236 1 0.855713 0.437793 0.5
59 1 0.92961 0.371553 0.5
306 1 0.550048 0.469846 0.5
26 1 0.598914 0.465211 0.5
154 1 0.646483 0.458623 0.5
75 1 0.695973 0.459168 0.5
268 1 0.719008 0.415515 0.5
161 1 0.805016 0.44882 0.5
340 1 0.850825 0.488813 0.5
174 1 0.9107 0.423749 0.5
89 1 0.63107 0.037269 0.5
218 1 0.943606 0.46323 0.5
111 1 0.68865 0.0346716 0.5
344 1 0.893629 0.468551 0.5
40 1 0.840163 0.00535766 0.5
4 1 1.00199 0.309783 0.5
100 1 0.506543 0.325649 0.5
372 1 0.613507 0.988005 0.5
116 1 0.498596 0.664146 0.5
311 1 0.815385 0.96097 0.5
186 1 0.815736 0.529625 0.5
214 1 0.92942 0.510556 0.5
355 1 0.971133 0.711815 0.5
273 1 0.548489 0.56331 0.5
252 1 0.598685 0.55328 0.5
185 1 0.650271 0.547216 0.5
322 1 0.703653 0.54672 0.5
87 1 0.757032 0.53458 0.5
16 1 0.873272 0.533704 0.5
104 1 0.998436 0.994154 0.5
166 1 0.58228 0.603433 0.5
303 1 0.633058 0.595271 0.5
70 1 0.683816 0.601267 0.5
262 1 0.730448 0.58774 0.5
287 1 0.785615 0.5735 0.5
69 1 0.846823 0.576981 0.5
181 1 0.894893 0.575483 0.5
227 1 0.943859 0.575886 0.5
151 1 0.53103 0.611868 0.5
62 1 0.76931 0.635006 0.5
79 1 0.921669 0.618386 0.5
339 1 0.969532 0.621894 0.5
296 1 0.671212 0.501485 0.5
239 1 0.553958 0.655344 0.5
61 1 0.603638 0.648907 0.5
140 1 0.653559 0.64292 0.5
338 1 0.709632 0.652113 0.5
285 1 0.816459 0.61896 0.5
277 1 0.873219 0.619511 0.5
291 1 0.532216 0.704139 0.5
9 1 0.588672 0.700651 0.5
47 1 0.638279 0.689562 0.5
200 1 0.689365 0.700208 0.5
57 1 0.739204 0.688925 0.5
27 1 0.789578 0.682403 0.5
93 1 0.852876 0.66432 0.5
32 1 0.898795 0.679367 0.5
191 1 0.952565 0.668167 0.5
348 1 0.716723 0.739241 0.5
157 1 0.771275 0.733621 0.5
178 1 0.820477 0.721402 0.5
388 1 0.870929 0.718403 0.5
145 1 0.926258 0.722005 0.5
353 1 0.662227 0.98751 0.5
242 1 0.624298 0.50722 0.5
55 1 0.562887 0.740342 0.5
29 1 0.613803 0.742192 0.5
317 1 0.665832 0.745385 0.5
373 1 0.956107 0.759355 0.5
133 1 0.540766 0.784699 0.5
385 1 0.600554 0.799784 0.5
223 1 0.648016 0.797729 0.5
80 1 0.694737 0.788389 0.5
67 1 0.744561 0.780548 0.5
304 1 0.799149 0.773225 0.5
170 1 0.849623 0.769813 0.5
165 1 0.903272 0.765275 0.5
243 1 0.622965 0.845569 0.5
3 1 0.677458 0.839214 0.5
22 1 0.725204 0.826151 0.5
17 1 0.780569 0.821216 0.5
382 1 0.833448 0.817278 0.5
158 1 0.883602 0.812375 0.5
272 1 0.933825 0.805008 0.5
261 1 0.993551 0.562728 0.5
333 1 0.521377 0.838541 0.5
171 1 0.569846 0.841575 0.5
124 1 0.710639 0.877474 0.5
392 1 0.759436 0.869063 0.5
256 1 0.806666 0.873358 0.5
384 1 0.504479 0.882636 0.5
194 1 0.587858 0.885614 0.5
11 1 0.642925 0.890689 0.5
180 1 0.854961 0.865734 0.5
73 1 0.911833 0.85686 0.5
279 1 0.960959 0.848319 0.5
229 1 0.614745 0.931613 0.5
121 1 0.715068 0.974249 0.5
91 1 0.734796 0.920761 0.5
397 1 0.781716 0.917331 0.5
257 1 0.83665 0.91148 0.5
335 1 0.895772 0.914704 0.5
203 1 0.939151 0.8967 0.5
12 1 0.986579 0.892539 0.5
389 1 0.510954 0.977718 0.5
48 1 0.543219 0.932969 0.5
189 1 0.574245 0.511399 0.5
305 1 0.685396 0.93417 0.5
327 1 0.762885 0.960471 0.5
71 1 0.863994 0.958601 0.5
143 1 0.915935 0.959412 0.5
19 1 0.966212 0.949878 0.5
169 1 0.524788 0.516521 0.5
380 1 0.981353 0.801237 0.5
274 1 0.563161 0.981943 0.5
97 1 0.506923 0.750316 0.5
84 1 0.976667 0.502603 0.5
282 1 0.947379 0.995391 0.5
