ITEM: TIMESTEP
100000
ITEM: NUMBER OF ATOMS
400
ITEM: BOX BOUNDS pp pp pp
0.0000000000000000e+00 1.9518001458970666e+01
0.0000000000000000e+00 1.9518001458970666e+01
-4.8795003647426660e-01 4.8795003647426660e-01
ITEM: ATOMS id type xs ys zs
236 1 0.0191511 0.00593753 0.5
176 1 0.343721 0.00163992 0.5
83 1 0.206279 0.019719 0.5
100 1 0.443221 0.460411 0.5
76 1 0.291416 0.0270005 0.5
223 1 0.437552 0.0147773 0.5
27 1 0.381969 0.0423231 0.5
304 1 0.303374 0.48652 0.5
165 1 0.0589941 0.0384499 0.5
3 1 0.113891 0.013086 0.5
184 1 0.252373 0.0555406 0.5
251 1 0.336396 0.0623181 0.5
224 1 0.424954 0.065438 0.5
38 1 0.47364 0.0480028 0.5
398 1 0.106904 0.0650456 0.5
25 1 0.157603 0.047059 0.5
56 1 0.201981 0.0705105 0.5
195 1 0.288261 0.0882154 0.5
30 1 0.384422 0.0928725 0.5
94 1 0.491805 0.10131 0.5
11 1 0.0536779 0.0993945 0.5
400 1 0.14424 0.0997302 0.5
18 1 0.239934 0.103826 0.5
36 1 0.332224 0.109126 0.5
271 1 0.429959 0.113559 0.5
15 1 0.051973 0.151837 0.5
73 1 0.099824 0.121817 0.5
193 1 0.188993 0.121096 0.5
37 1 0.240539 0.157272 0.5
390 1 0.293972 0.136885 0.5
26 1 0.379198 0.142984 0.5
89 1 0.468817 0.143595 0.5
397 1 0.1056 0.175363 0.5
91 1 0.150557 0.152084 0.5
57 1 0.192233 0.185926 0.5
14 1 0.2899 0.187924 0.5
5 1 0.338129 0.175265 0.5
40 1 0.383558 0.195811 0.5
87 1 0.424431 0.16535 0.5
386 1 0.00637643 0.129413 0.5
45 1 0.0535013 0.201225 0.5
65 1 0.146272 0.206159 0.5
2 1 0.245854 0.211421 0.5
74 1 0.333024 0.227685 0.5
9 1 0.424503 0.227955 0.5
274 1 0.480621 0.208546 0.5
93 1 0.100702 0.229323 0.5
125 1 0.19841 0.239549 0.5
258 1 0.282668 0.245942 0.5
202 1 0.379699 0.246772 0.5
58 1 0.466991 0.255544 0.5
297 1 0.0498655 0.256894 0.5
95 1 0.0901098 0.283137 0.5
62 1 0.148363 0.254705 0.5
41 1 0.238148 0.268435 0.5
291 1 0.323699 0.275863 0.5
59 1 0.412982 0.286605 0.5
270 1 0.0284841 0.313889 0.5
71 1 0.136307 0.302323 0.5
55 1 0.184529 0.285957 0.5
269 1 0.221161 0.319002 0.5
50 1 0.276483 0.303457 0.5
75 1 0.364427 0.311483 0.5
107 1 0.410297 0.337603 0.5
110 1 0.456555 0.306519 0.5
53 1 0.0853716 0.333989 0.5
79 1 0.172262 0.33826 0.5
97 1 0.26625 0.350287 0.5
260 1 0.316278 0.330471 0.5
115 1 0.358825 0.362313 0.5
60 1 0.455036 0.358157 0.5
117 1 0.0320841 0.362657 0.5
348 1 0.126241 0.36812 0.5
84 1 0.215151 0.373203 0.5
63 1 0.308828 0.383976 0.5
119 1 0.403092 0.390189 0.5
268 1 0.0800999 0.38398 0.5
318 1 0.129297 0.423672 0.5
86 1 0.173195 0.397833 0.5
134 1 0.213533 0.423362 0.5
85 1 0.257757 0.403328 0.5
98 1 0.353764 0.415124 0.5
128 1 0.395797 0.442748 0.5
106 1 0.448129 0.409041 0.5
44 1 0.0399787 0.414266 0.5
114 1 0.0796133 0.446823 0.5
72 1 0.171277 0.448961 0.5
64 1 0.256396 0.460645 0.5
127 1 0.301964 0.436119 0.5
96 1 0.346383 0.464043 0.5
133 1 0.0378118 0.471653 0.5
92 1 0.118797 0.476224 0.5
166 1 0.209342 0.477386 0.5
399 1 0.0138519 0.0623562 0.5
301 1 0.495316 0.453654 0.5
306 1 0.495364 0.39087 0.5
191 1 0.0028377 0.184573 0.5
294 1 0.389483 0.495361 0.5
249 1 0.00681647 0.235794 0.5
135 1 0.16352 0.497392 0.5
173 1 0.487692 0.664005 0.5
376 1 0.0654294 0.983271 0.5
169 1 0.482758 0.503082 0.5
295 1 0.344228 0.524648 0.5
139 1 0.433403 0.518058 0.5
300 1 0.0316958 0.530145 0.5
290 1 0.118354 0.530848 0.5
319 1 0.165729 0.550977 0.5
158 1 0.210815 0.53209 0.5
282 1 0.297089 0.545424 0.5
168 1 0.344975 0.573959 0.5
159 1 0.394571 0.552991 0.5
123 1 0.0348223 0.578314 0.5
111 1 0.087209 0.565072 0.5
137 1 0.205718 0.582711 0.5
283 1 0.256416 0.570698 0.5
180 1 0.298051 0.59425 0.5
130 1 0.394907 0.601496 0.5
281 1 0.435927 0.575769 0.5
299 1 0.078663 0.61494 0.5
267 1 0.129392 0.584843 0.5
112 1 0.170039 0.622153 0.5
280 1 0.259139 0.628634 0.5
196 1 0.354841 0.627927 0.5
312 1 0.445825 0.637572 0.5
124 1 0.0318329 0.630048 0.5
113 1 0.12288 0.644409 0.5
109 1 0.210364 0.649343 0.5
136 1 0.305249 0.645746 0.5
148 1 0.397657 0.661159 0.5
175 1 0.0253472 0.678304 0.5
279 1 0.0751212 0.671444 0.5
138 1 0.118907 0.693054 0.5
156 1 0.164325 0.671063 0.5
146 1 0.254648 0.676774 0.5
331 1 0.350959 0.681344 0.5
160 1 0.437148 0.695407 0.5
142 1 0.0721612 0.719171 0.5
197 1 0.163733 0.719622 0.5
126 1 0.212846 0.700184 0.5
179 1 0.258624 0.728772 0.5
157 1 0.300028 0.702454 0.5
371 1 0.343101 0.731191 0.5
272 1 0.391707 0.712392 0.5
353 1 0.434972 0.746406 0.5
140 1 0.4851 0.718292 0.5
178 1 0.0249583 0.735642 0.5
152 1 0.109535 0.750662 0.5
177 1 0.2071 0.753466 0.5
187 1 0.295943 0.761052 0.5
150 1 0.391443 0.770158 0.5
392 1 0.477324 0.772758 0.5
185 1 0.063853 0.773908 0.5
16 1 0.158737 0.771833 0.5
188 1 0.251919 0.785747 0.5
189 1 0.343986 0.781991 0.5
342 1 0.433004 0.796718 0.5
182 1 0.0191525 0.794667 0.5
380 1 0.0671538 0.824397 0.5
145 1 0.118306 0.803905 0.5
47 1 0.157217 0.831337 0.5
212 1 0.201578 0.804152 0.5
12 1 0.250538 0.834427 0.5
167 1 0.303114 0.81615 0.5
204 1 0.388234 0.82139 0.5
20 1 0.478502 0.824962 0.5
388 1 0.0203378 0.842794 0.5
132 1 0.114703 0.854011 0.5
194 1 0.201911 0.857499 0.5
382 1 0.342591 0.846527 0.5
352 1 0.432287 0.850953 0.5
357 1 0.0673825 0.874452 0.5
105 1 0.158098 0.882396 0.5
181 1 0.242339 0.886713 0.5
198 1 0.297677 0.869205 0.5
49 1 0.340566 0.900774 0.5
24 1 0.39473 0.884919 0.5
391 1 0.434186 0.912917 0.5
186 1 0.473554 0.878631 0.5
7 1 0.0217102 0.896003 0.5
164 1 0.109359 0.90338 0.5
147 1 0.200626 0.912835 0.5
6 1 0.294069 0.918478 0.5
200 1 0.389775 0.936036 0.5
46 1 0.249491 0.99682 0.5
369 1 0.023056 0.954586 0.5
144 1 0.0650187 0.924997 0.5
192 1 0.153352 0.93279 0.5
8 1 0.250732 0.940601 0.5
211 1 0.341993 0.94864 0.5
199 1 0.440807 0.960384 0.5
171 1 0.113232 0.961858 0.5
155 1 0.203371 0.963454 0.5
17 1 0.292918 0.9729 0.5
10 1 0.388641 0.987049 0.5
221 1 0.485134 0.999785 0.5
149 1 0.483689 0.607132 0.5
293 1 0.480923 0.555326 0.5
108 1 0.253665 0.508799 0.5
51 1 0.0744122 0.504819 0.5
29 1 0.163657 0.992237 0.5
69 1 0.521187 0.0277263 0.5
287 1 0.99038 0.452079 0.5
205 1 0.747028 0.0408512 0.5
67 1 0.945781 0.468449 0.5
350 1 0.795659 0.0240731 0.5
396 1 0.889948 0.0281223 0.5
35 1 0.530644 0.231631 0.5
222 1 0.575004 0.0417924 0.5
336 1 0.692472 0.0689338 0.5
385 1 0.779612 0.0786585 0.5
273 1 0.837758 0.0504733 0.5
344 1 0.962129 0.0530039 0.5
394 1 0.62869 0.032891 0.5
232 1 0.541478 0.0791723 0.5
201 1 0.58747 0.0943138 0.5
253 1 0.63846 0.0841387 0.5
228 1 0.738457 0.109872 0.5
255 1 0.825168 0.101211 0.5
257 1 0.917198 0.0672004 0.5
256 1 0.991286 0.396699 0.5
261 1 0.534987 0.130912 0.5
264 1 0.626225 0.13789 0.5
241 1 0.674012 0.12082 0.5
252 1 0.713918 0.155391 0.5
225 1 0.782222 0.13445 0.5
245 1 0.825239 0.156782 0.5
215 1 0.872376 0.0899944 0.5
220 1 0.963332 0.102281 0.5
233 1 0.700815 0.0190218 0.5
48 1 0.578153 0.153696 0.5
242 1 0.663639 0.168094 0.5
31 1 0.752703 0.191565 0.5
13 1 0.916841 0.118011 0.5
250 1 0.956969 0.156443 0.5
78 1 0.616812 0.186935 0.5
263 1 0.705043 0.212992 0.5
240 1 0.801066 0.203335 0.5
265 1 0.87114 0.141451 0.5
370 1 0.906223 0.174717 0.5
229 1 0.938105 0.00931116 0.5
39 1 0.569745 0.202489 0.5
230 1 0.60749 0.234768 0.5
284 1 0.654339 0.218948 0.5
244 1 0.693691 0.269316 0.5
374 1 0.744994 0.243115 0.5
1 1 0.859163 0.192891 0.5
42 1 0.960958 0.214774 0.5
313 1 0.856679 0.466906 0.5
262 1 0.570867 0.265539 0.5
296 1 0.643347 0.272756 0.5
218 1 0.762508 0.292234 0.5
366 1 0.798746 0.256177 0.5
21 1 0.897534 0.225269 0.5
339 1 0.710518 0.489558 0.5
317 1 0.62427 0.484625 0.5
226 1 0.605393 0.312264 0.5
206 1 0.716653 0.314287 0.5
207 1 0.845872 0.240514 0.5
23 1 0.885385 0.277207 0.5
238 1 0.939525 0.263976 0.5
70 1 0.55298 0.318445 0.5
259 1 0.660416 0.352655 0.5
277 1 0.762582 0.354175 0.5
237 1 0.803084 0.321857 0.5
395 1 0.839939 0.288196 0.5
66 1 0.93244 0.316257 0.5
120 1 0.535429 0.481574 0.5
68 1 0.511946 0.286191 0.5
118 1 0.542751 0.371769 0.5
99 1 0.612324 0.366476 0.5
278 1 0.709255 0.369531 0.5
288 1 0.801656 0.386991 0.5
289 1 0.88228 0.326931 0.5
61 1 0.984881 0.289257 0.5
116 1 0.524392 0.180124 0.5
276 1 0.578951 0.404164 0.5
32 1 0.669888 0.405666 0.5
303 1 0.712447 0.429461 0.5
324 1 0.756832 0.407177 0.5
33 1 0.887215 0.378158 0.5
43 1 0.946334 0.364805 0.5
246 1 0.532976 0.42404 0.5
292 1 0.622111 0.430336 0.5
308 1 0.75808 0.460164 0.5
298 1 0.812171 0.445449 0.5
52 1 0.8413 0.353466 0.5
266 1 0.899506 0.443818 0.5
34 1 0.944257 0.415486 0.5
389 1 0.987072 0.339401 0.5
77 1 0.501452 0.336606 0.5
80 1 0.583071 0.45999 0.5
247 1 0.670268 0.459058 0.5
248 1 0.806935 0.493208 0.5
239 1 0.848402 0.407781 0.5
275 1 0.526413 0.531106 0.5
354 1 0.837787 0.938015 0.5
307 1 0.61915 0.538366 0.5
101 1 0.849274 0.518385 0.5
338 1 0.759132 0.50986 0.5
327 1 0.667763 0.512931 0.5
309 1 0.941266 0.527825 0.5
234 1 0.703164 0.968472 0.5
209 1 0.976247 0.977546 0.5
315 1 0.57494 0.559759 0.5
323 1 0.663928 0.566094 0.5
314 1 0.713092 0.54352 0.5
310 1 0.804175 0.543346 0.5
330 1 0.897283 0.550989 0.5
81 1 0.982535 0.654262 0.5
210 1 0.798215 0.965941 0.5
332 1 0.53029 0.586765 0.5
335 1 0.621572 0.591123 0.5
305 1 0.710584 0.593686 0.5
302 1 0.759709 0.565872 0.5
320 1 0.799737 0.596879 0.5
141 1 0.852406 0.567725 0.5
316 1 0.939192 0.578787 0.5
359 1 0.573556 0.611291 0.5
129 1 0.663791 0.614152 0.5
329 1 0.757095 0.619083 0.5
349 1 0.842815 0.61708 0.5
153 1 0.892333 0.602197 0.5
154 1 0.983439 0.703234 0.5
217 1 0.890505 0.975852 0.5
90 1 0.527286 0.638273 0.5
170 1 0.571494 0.660903 0.5
337 1 0.617683 0.640906 0.5
334 1 0.659811 0.661417 0.5
131 1 0.712675 0.646993 0.5
340 1 0.803163 0.652595 0.5
174 1 0.887572 0.653198 0.5
347 1 0.937817 0.633836 0.5
122 1 0.98512 0.604553 0.5
381 1 0.527808 0.693773 0.5
345 1 0.612752 0.698902 0.5
121 1 0.708324 0.69701 0.5
190 1 0.758081 0.670168 0.5
172 1 0.845764 0.681566 0.5
286 1 0.933318 0.683457 0.5
322 1 0.569819 0.726795 0.5
326 1 0.6632 0.720677 0.5
377 1 0.749428 0.72315 0.5
151 1 0.798728 0.69955 0.5
235 1 0.846645 0.735191 0.5
328 1 0.889007 0.708361 0.5
216 1 0.934738 0.948707 0.5
393 1 0.522131 0.749799 0.5
355 1 0.613426 0.752199 0.5
372 1 0.703317 0.75157 0.5
321 1 0.79202 0.751673 0.5
367 1 0.891697 0.759798 0.5
102 1 0.936497 0.735176 0.5
383 1 0.524506 0.799628 0.5
333 1 0.56765 0.775005 0.5
341 1 0.620434 0.806604 0.5
161 1 0.664116 0.78349 0.5
375 1 0.704183 0.80893 0.5
356 1 0.747786 0.780496 0.5
311 1 0.843899 0.783684 0.5
143 1 0.932278 0.790602 0.5
162 1 0.979242 0.761008 0.5
384 1 0.570579 0.831067 0.5
203 1 0.661322 0.835576 0.5
360 1 0.748075 0.831791 0.5
346 1 0.795709 0.805715 0.5
82 1 0.888738 0.812314 0.5
4 1 0.973128 0.817329 0.5
28 1 0.522502 0.851366 0.5
363 1 0.613335 0.857529 0.5
254 1 0.704388 0.861494 0.5
379 1 0.793575 0.856589 0.5
227 1 0.842024 0.834275 0.5
104 1 0.931272 0.843726 0.5
361 1 0.568764 0.880319 0.5
231 1 0.653216 0.884673 0.5
103 1 0.749712 0.882758 0.5
208 1 0.840205 0.891201 0.5
183 1 0.884259 0.862944 0.5
163 1 0.977435 0.868607 0.5
362 1 0.52129 0.904442 0.5
351 1 0.610275 0.911158 0.5
343 1 0.699001 0.912886 0.5
373 1 0.793796 0.914959 0.5
22 1 0.8846 0.911507 0.5
368 1 0.933853 0.892536 0.5
387 1 0.977539 0.923584 0.5
364 1 0.547752 0.98613 0.5
19 1 0.567093 0.937815 0.5
243 1 0.655057 0.988248 0.5
213 1 0.653252 0.937793 0.5
365 1 0.746717 0.93148 0.5
358 1 0.988655 0.552528 0.5
378 1 0.749186 0.991127 0.5
285 1 0.576455 0.512408 0.5
88 1 0.601518 0.977245 0.5
219 1 0.847295 0.99998 0.5
325 1 0.985009 0.502234 0.5
214 1 0.500875 0.95245 0.5
54 1 0.897378 0.501024 0.5
