ITEM: TIMESTEP
100000
ITEM: NUMBER OF ATOMS
2048
ITEM: BOX BOUNDS pp pp pp
0.0000000000000000e+00 1.1351867295763070e+01
0.0000000000000000e+00 1.1351867295763070e+01
0.0000000000000000e+00 1.1351867295763070e+01
ITEM: ATOMS id type xs ys zs
397 1 0.378669 0.000818974 0.377654
594 1 0.554869 0.318928 0.499971
578 1 0.0605112 0.310057 0.497373
409 1 0.746583 -0.000524995 0.372901
32 1 0.874763 0.0734373 0.0613417
610 1 0.0598533 0.435888 0.49771
1183 1 0.939558 0.498593 0.189345
1305 1 0.750776 0.499365 0.247665
629 1 0.622807 0.383349 0.499973
261 1 0.124848 0.00356474 0.24951
2 1 0.0642997 0.0592893 0.00147391
63 1 0.941784 0.129309 0.063783
1171 1 0.567291 0.497055 0.181549
153 1 0.753388 0.00216347 0.124659
618 1 0.308208 0.440954 0.49631
48 1 0.38365 0.194857 0.0596067
98 1 0.0605123 0.439018 0.00515474
1035 1 0.316656 0.501862 0.0629438
1179 1 0.813182 0.498484 0.185709
36 1 0.00529519 0.186432 0.0602636
67 1 0.064343 0.245831 0.0633918
75 1 0.315631 0.250091 0.0632245
79 1 0.442537 0.256849 0.0590572
553 1 0.243072 0.127155 0.49878
1051 1 0.81199 0.498446 0.0620513
95 1 0.946688 0.248124 0.0609393
1311 1 0.934746 0.498016 0.307674
72 1 0.124209 0.310137 0.0643708
405 1 0.618774 0.000529555 0.377818
76 1 0.250555 0.309814 0.0605033
3 1 0.0636377 0.00157632 0.0630371
37 1 0.120573 0.123769 0.00443485
84 1 0.499983 0.31724 0.068442
403 1 0.559795 0.00305166 0.439917
259 1 0.0643354 0.00299491 0.31278
281 1 0.745514 0.00230641 0.249125
613 1 0.125106 0.375787 0.488988
407 1 0.687742 0.00136389 0.436842
96 1 0.877963 0.316717 0.0608829
31 1 0.933809 0.00639809 0.0615982
68 1 0.00227343 0.316203 0.0661382
593 1 0.499647 0.248756 0.499916
115 1 0.565138 0.372067 0.0634692
1537 1 0.00362309 0.497183 0.495531
147 1 0.566105 -0.000984664 0.194542
1031 1 0.18202 0.496608 0.0607406
137 1 0.250062 0.0020179 0.123317
99 1 0.0611544 0.380263 0.0630655
108 1 0.246174 0.438674 0.0611685
107 1 0.312699 0.371662 0.0581528
111 1 0.436006 0.380632 0.0631099
116 1 0.499448 0.435334 0.0624127
61 1 0.873339 0.128965 -0.00167333
1181 1 0.878808 0.497292 0.130098
285 1 0.869362 0.00297134 0.249189
1427 1 0.560709 0.494904 0.436266
127 1 0.941492 0.376539 0.0664352
395 1 0.310202 0.000351132 0.441167
104 1 0.122585 0.439662 0.0632856
122 1 0.808049 0.440298 0.000212286
112 1 0.375481 0.437031 0.0646114
159 1 0.934516 0.00219219 0.183939
574 1 0.93681 0.187959 0.4974
557 1 0.372632 0.125348 0.50001
6 1 0.190819 0.065489 0.00503487
8 1 0.126189 0.0545914 0.0579364
12 1 0.25612 0.0622816 0.0656109
16 1 0.379746 0.0583936 0.0658216
146 1 0.563884 0.0606121 0.122443
24 1 0.625629 0.0614313 0.0640005
1421 1 0.371617 0.501061 0.373236
4 1 -0.00020414 0.0635383 0.0594302
35 1 0.0629747 0.120576 0.0680664
165 1 0.130416 0.117054 0.120575
39 1 0.18998 0.13081 0.0600149
43 1 0.317453 0.123789 0.0578229
47 1 0.443251 0.13167 0.0621601
20 1 0.506412 0.0631073 0.0612248
51 1 0.569428 0.127785 0.0677636
55 1 0.689992 0.122014 0.0681167
28 1 0.745671 0.0616249 0.0620901
154 1 0.817503 0.0695621 0.126285
162 1 0.0666539 0.185626 0.1255
40 1 0.12429 0.185066 0.0634074
166 1 0.182596 0.185836 0.123783
44 1 0.249746 0.188876 0.0597656
170 1 0.319611 0.18459 0.120615
174 1 0.437814 0.190405 0.130565
52 1 0.500463 0.191426 0.061514
56 1 0.627944 0.188734 0.0616583
60 1 0.749768 0.187158 0.0616178
59 1 0.808356 0.127338 0.0616214
186 1 0.807385 0.191592 0.121616
197 1 0.127447 0.252996 0.127757
71 1 0.191609 0.247255 0.0584966
205 1 0.378355 0.253126 0.123972
83 1 0.567676 0.255548 0.0612213
213 1 0.626403 0.252507 0.12711
87 1 0.686426 0.249669 0.0540755
91 1 0.815645 0.254935 0.0610303
64 1 0.876319 0.189974 0.0659704
190 1 0.936534 0.192627 0.130059
194 1 0.0649289 0.310799 0.127425
198 1 0.190727 0.309671 0.118837
202 1 0.309601 0.310113 0.121225
80 1 0.376767 0.310545 0.0616405
206 1 0.438176 0.318552 0.125156
88 1 0.626408 0.315424 0.0624056
92 1 0.748075 0.314223 0.0571343
221 1 0.872096 0.250893 0.123135
233 1 0.249736 0.373749 0.122797
245 1 0.631211 0.377663 0.125672
119 1 0.690106 0.375659 0.0606821
123 1 0.812344 0.375145 0.0634951
222 1 0.935994 0.311951 0.121674
100 1 0.00102375 0.442402 0.0654043
229 1 0.125365 0.373682 0.123928
103 1 0.189368 0.371449 0.0571746
234 1 0.301567 0.441288 0.122577
237 1 0.371937 0.37303 0.122923
242 1 0.571152 0.437169 0.122573
120 1 0.627047 0.435632 0.0585704
246 1 0.692528 0.437313 0.120566
124 1 0.746545 0.440556 0.0571118
15 1 0.446107 0.000514584 0.0620324
226 1 0.0667076 0.442683 0.13051
1289 1 0.251387 0.499179 0.248515
1561 1 0.752199 0.492505 0.500153
1435 1 0.812545 0.495238 0.437543
1043 1 0.566706 0.498161 0.0653708
128 1 0.873608 0.436878 0.0579977
254 1 0.938243 0.437528 0.127223
130 1 0.0636843 0.061228 0.124471
134 1 0.189959 0.058672 0.122385
110 1 0.435903 0.438724 0.000413751
150 1 0.687377 0.0558163 0.125117
156 1 0.748498 0.0625002 0.188556
1291 1 0.313625 0.498823 0.308667
602 1 0.812296 0.310589 0.498506
158 1 0.936023 0.0693601 0.123835
167 1 0.192331 0.125357 0.187168
138 1 0.312578 0.0578993 0.124383
173 1 0.380403 0.121939 0.121266
142 1 0.447328 0.0675478 0.122187
175 1 0.443829 0.122601 0.182876
177 1 0.505981 0.12473 0.122589
181 1 0.630047 0.121867 0.124773
185 1 0.751399 0.120318 0.125209
187 1 0.810605 0.127868 0.187745
189 1 0.87154 0.127871 0.126212
161 1 0.996446 0.127961 0.127818
169 1 0.250405 0.131668 0.121489
178 1 0.560366 0.193179 0.122947
182 1 0.686366 0.190841 0.115696
193 1 0.00350083 0.251967 0.12296
199 1 0.193531 0.252933 0.183607
201 1 0.251356 0.246767 0.120693
176 1 0.375243 0.18342 0.18899
207 1 0.440789 0.256497 0.184555
209 1 0.501082 0.250913 0.123052
211 1 0.561947 0.247525 0.18958
217 1 0.742718 0.252888 0.124962
195 1 0.0620559 0.253527 0.189364
200 1 0.126455 0.308571 0.193063
204 1 0.255021 0.307257 0.186287
208 1 0.373856 0.312304 0.187063
212 1 0.49869 0.320133 0.185876
216 1 0.626142 0.310436 0.190112
214 1 0.685911 0.311207 0.127007
218 1 0.809827 0.310834 0.124111
223 1 0.938933 0.25164 0.186725
225 1 0.00107826 0.378339 0.132187
227 1 0.0655915 0.366178 0.188426
231 1 0.188419 0.364717 0.185137
241 1 0.50297 0.378751 0.124401
210 1 0.567838 0.314643 0.123872
243 1 0.567716 0.375387 0.185227
249 1 0.749817 0.368816 0.126718
253 1 0.875332 0.37218 0.124164
255 1 0.936214 0.372312 0.186934
228 1 0.0069619 0.440615 0.185788
240 1 0.375054 0.439918 0.18667
239 1 0.433425 0.377959 0.188799
244 1 0.497718 0.436588 0.187507
248 1 0.624059 0.435291 0.193291
250 1 0.809268 0.435825 0.121792
232 1 0.132065 0.429859 0.189123
230 1 0.187893 0.431662 0.121063
236 1 0.240161 0.438022 0.192602
62 1 0.940623 0.184586 0.000428333
238 1 0.435298 0.437137 0.126988
267 1 0.311782 0.00367105 0.316163
1163 1 0.310991 0.498707 0.18685
126 1 0.936372 0.434843 0.00296175
136 1 0.131782 0.0608933 0.184661
140 1 0.251667 0.0651116 0.180463
144 1 0.37511 0.0640804 0.189408
1309 1 0.874333 0.497175 0.247143
148 1 0.50539 0.0638431 0.186926
152 1 0.623891 0.063829 0.187857
278 1 0.686738 0.0608034 0.254533
160 1 0.874278 0.0589105 0.188268
132 1 0.99127 0.0607367 0.185338
297 1 0.251973 0.127079 0.250257
270 1 0.435384 0.0651006 0.24796
179 1 0.563677 0.123079 0.184944
183 1 0.688637 0.128774 0.188784
313 1 0.745751 0.120955 0.255072
282 1 0.811191 0.0582375 0.245982
191 1 0.926772 0.12511 0.185156
163 1 0.0576458 0.124912 0.184823
293 1 0.128434 0.125954 0.244701
172 1 0.258713 0.188509 0.182161
171 1 0.315965 0.121143 0.181742
302 1 0.438674 0.183456 0.250176
180 1 0.499768 0.186096 0.186884
184 1 0.622423 0.187296 0.183765
188 1 0.753249 0.188742 0.184159
192 1 0.870035 0.190773 0.185335
164 1 0.000613985 0.189363 0.186043
168 1 0.126784 0.187024 0.186345
203 1 0.319047 0.248712 0.182539
310 1 0.688002 0.185538 0.254928
345 1 0.758047 0.248323 0.250756
219 1 0.811443 0.25328 0.185633
196 1 -0.000252776 0.307529 0.182736
325 1 0.13 0.242049 0.248531
330 1 0.316524 0.309158 0.251243
333 1 0.380678 0.247727 0.24454
337 1 0.496141 0.24821 0.248884
338 1 0.563194 0.311794 0.245112
215 1 0.690061 0.252491 0.196826
220 1 0.750852 0.314732 0.1917
224 1 0.875829 0.312933 0.187544
349 1 0.876892 0.250134 0.247747
322 1 0.0624241 0.312997 0.256553
235 1 0.312893 0.374859 0.18376
334 1 0.438837 0.318297 0.250837
373 1 0.62587 0.379301 0.25534
377 1 0.7522 0.378006 0.25486
251 1 0.810167 0.377054 0.186845
353 1 0.0011724 0.377985 0.250675
357 1 0.126038 0.378965 0.256975
361 1 0.249967 0.367585 0.243698
365 1 0.375603 0.373183 0.248518
369 1 0.498343 0.378141 0.248967
370 1 0.560744 0.440638 0.253777
247 1 0.684234 0.374961 0.190944
378 1 0.8105 0.437196 0.249338
256 1 0.874264 0.432737 0.190356
287 1 0.933678 0.00107526 0.303054
358 1 0.184117 0.442904 0.252735
366 1 0.431349 0.437582 0.253713
374 1 0.688983 0.435173 0.251876
252 1 0.747427 0.437323 0.185237
94 1 0.946108 0.315662 0.00554191
518 1 0.184949 0.0575439 0.497797
262 1 0.196464 0.0591168 0.251617
268 1 0.247021 0.0644526 0.318867
266 1 0.31026 0.0629797 0.248215
274 1 0.563358 0.066711 0.249997
415 1 0.940727 -0.00122817 0.434632
258 1 0.0575544 0.0669466 0.243879
301 1 0.37376 0.125409 0.250356
272 1 0.376051 0.0631471 0.311709
305 1 0.502985 0.126884 0.244705
309 1 0.62766 0.123408 0.247256
311 1 0.682056 0.121829 0.314532
317 1 0.87281 0.125046 0.251929
286 1 0.934822 0.0666774 0.247298
289 1 0.997388 0.126748 0.242837
291 1 0.0587411 0.123366 0.309176
295 1 0.186494 0.121883 0.306496
299 1 0.309181 0.124071 0.315107
304 1 0.37415 0.188991 0.313979
312 1 0.624633 0.193078 0.317229
315 1 0.810133 0.120476 0.31337
314 1 0.812057 0.181808 0.25321
290 1 0.06008 0.186713 0.250446
294 1 0.194586 0.185473 0.248423
298 1 0.310341 0.188699 0.244519
335 1 0.435529 0.248392 0.310469
308 1 0.50369 0.192994 0.313959
306 1 0.563837 0.18755 0.255939
339 1 0.562407 0.251609 0.320133
341 1 0.623682 0.252127 0.254675
343 1 0.691684 0.255685 0.314113
316 1 0.748872 0.184901 0.318136
320 1 0.874437 0.189475 0.31085
318 1 0.936198 0.183564 0.246977
321 1 0.997301 0.248448 0.250517
329 1 0.250714 0.255471 0.248704
331 1 0.313611 0.246466 0.313314
336 1 0.374892 0.31536 0.307396
344 1 0.631246 0.314644 0.316124
342 1 0.687733 0.314901 0.252825
348 1 0.754347 0.312424 0.309791
346 1 0.812533 0.314038 0.248642
352 1 0.86841 0.311371 0.316187
350 1 0.940873 0.313604 0.250715
324 1 1.00102 0.306807 0.315175
326 1 0.19225 0.308309 0.246676
363 1 0.311824 0.375346 0.313408
340 1 0.5006 0.311656 0.310544
381 1 0.874566 0.372804 0.249567
354 1 0.0675639 0.441254 0.248558
360 1 0.119826 0.441717 0.312934
367 1 0.433895 0.378095 0.312097
371 1 0.55961 0.37436 0.313317
375 1 0.690538 0.375732 0.317337
382 1 0.937157 0.438768 0.245475
443 1 0.809238 0.125387 0.435817
364 1 0.247934 0.434564 0.309364
362 1 0.311572 0.431257 0.247139
368 1 0.370625 0.43924 0.310326
500 1 0.500782 0.434598 0.432619
372 1 0.495449 0.442729 0.308665
41 1 0.254618 0.125518 0.00100809
376 1 0.630159 0.439161 0.316142
380 1 0.749825 0.440353 0.315708
492 1 0.247363 0.441866 0.433503
129 1 0.997612 0.00129481 0.125033
384 1 0.877085 0.436607 0.31509
264 1 0.122982 0.0683121 0.306467
484 1 1.00176 0.437167 0.435178
606 1 0.935316 0.309983 0.497205
402 1 0.561617 0.062095 0.372961
280 1 0.627817 0.0596381 0.31684
284 1 0.750158 0.0600625 0.311171
1 1 0.003316 -4.58488e-05 0.00191953
260 1 0.999745 0.0633404 0.302569
303 1 0.441741 0.127424 0.309363
276 1 0.498616 0.063092 0.313337
307 1 0.563526 0.126541 0.312633
288 1 0.871904 0.0584376 0.313912
414 1 0.935665 0.0588235 0.373134
422 1 0.18418 0.193745 0.373405
429 1 0.370594 0.124158 0.376902
430 1 0.431817 0.188447 0.37536
433 1 0.497082 0.127643 0.376574
434 1 0.56032 0.188784 0.376979
438 1 0.680678 0.19059 0.374614
319 1 0.935774 0.126307 0.3146
292 1 1.00023 0.187994 0.313513
296 1 0.122555 0.183067 0.310343
300 1 0.254141 0.185491 0.310946
426 1 0.31345 0.183791 0.379558
461 1 0.377617 0.253527 0.375973
473 1 0.744454 0.249247 0.382207
347 1 0.80832 0.25059 0.317728
351 1 0.937514 0.249497 0.30951
323 1 0.0642095 0.245097 0.315124
328 1 0.129992 0.30499 0.305094
327 1 0.189336 0.249217 0.308249
454 1 0.191937 0.316288 0.375628
332 1 0.258877 0.312623 0.312803
462 1 0.432902 0.317222 0.372437
465 1 0.497444 0.254893 0.379068
469 1 0.62458 0.256273 0.375534
470 1 0.683922 0.317798 0.384648
474 1 0.8152 0.310847 0.380715
449 1 0.000969123 0.248261 0.377031
355 1 0.0581834 0.379806 0.312933
450 1 0.0655377 0.317619 0.37193
493 1 0.374219 0.385215 0.375066
466 1 0.561245 0.31307 0.378432
383 1 0.932488 0.370048 0.316733
478 1 0.935646 0.310441 0.373772
482 1 0.0578737 0.444163 0.370034
359 1 0.193081 0.367742 0.311749
489 1 0.255519 0.375225 0.374745
494 1 0.437415 0.442631 0.370901
498 1 0.559608 0.4387 0.370038
501 1 0.623417 0.382258 0.379736
505 1 0.753321 0.374874 0.377625
379 1 0.810956 0.376559 0.31185
506 1 0.811443 0.431688 0.373575
509 1 0.874641 0.372397 0.375359
143 1 0.434875 0.00133773 0.188587
582 1 0.180325 0.317126 0.496511
385 1 0.999166 0.00376955 0.369106
486 1 0.185871 0.438849 0.372048
558 1 0.439999 0.187861 0.496189
490 1 0.307647 0.441215 0.370711
507 1 0.81621 0.380534 0.44088
502 1 0.689574 0.441993 0.37253
356 1 1.00048 0.439792 0.310022
386 1 0.0636347 0.0670942 0.373049
483 1 0.0548103 0.373309 0.439282
394 1 0.313602 0.0616128 0.379309
275 1 0.560936 0.00315848 0.31205
125 1 0.876772 0.373739 0.00426037
416 1 0.872188 0.0591469 0.43905
464 1 0.376601 0.310636 0.438325
440 1 0.621047 0.194411 0.437707
412 1 0.746073 0.0605633 0.438904
417 1 0.996419 0.120007 0.373422
421 1 0.124877 0.128587 0.377818
390 1 0.183251 0.0580501 0.376807
398 1 0.442547 0.0587504 0.381751
437 1 0.623116 0.126848 0.379534
406 1 0.687327 0.0606836 0.375817
439 1 0.682236 0.127312 0.436368
410 1 0.807934 0.0587961 0.377571
418 1 0.065754 0.186949 0.373059
424 1 0.125902 0.191909 0.43102
423 1 0.183519 0.133314 0.438399
425 1 0.248188 0.127282 0.378294
427 1 0.309994 0.123483 0.438824
431 1 0.437215 0.123226 0.440243
436 1 0.504784 0.187186 0.43737
441 1 0.746087 0.12302 0.375674
445 1 0.877275 0.120582 0.37713
447 1 0.938182 0.124385 0.436952
446 1 0.933104 0.187681 0.373583
451 1 0.0576189 0.247747 0.440164
453 1 0.126309 0.251466 0.369386
428 1 0.248619 0.192958 0.441593
459 1 0.314745 0.248128 0.440998
432 1 0.369185 0.187354 0.439224
467 1 0.558786 0.251759 0.437843
442 1 0.815025 0.184781 0.370137
448 1 0.8739 0.183681 0.434226
456 1 0.126703 0.31362 0.430074
457 1 0.256795 0.244088 0.378489
458 1 0.315312 0.31462 0.37786
463 1 0.440539 0.246022 0.438626
468 1 0.495797 0.317472 0.437244
476 1 0.749369 0.312544 0.440401
477 1 0.874594 0.254161 0.375066
479 1 0.932411 0.251089 0.43819
452 1 0.997066 0.311082 0.437184
485 1 0.124788 0.384098 0.374306
460 1 0.25229 0.316405 0.438759
495 1 0.433602 0.376341 0.434512
472 1 0.618569 0.314721 0.440829
480 1 0.877426 0.315025 0.435451
481 1 0.997098 0.37006 0.37098
488 1 0.119737 0.440018 0.436217
487 1 0.189238 0.377087 0.434683
491 1 0.321132 0.37692 0.440721
496 1 0.376839 0.438197 0.444976
497 1 0.498294 0.370753 0.37277
504 1 0.626365 0.441586 0.436593
503 1 0.688686 0.37871 0.439452
508 1 0.753249 0.436308 0.434046
512 1 0.883392 0.433323 0.431777
511 1 0.941935 0.373827 0.430885
435 1 0.565335 0.130804 0.440793
617 1 0.247801 0.379393 0.500569
510 1 0.941082 0.438013 0.37129
499 1 0.562229 0.37666 0.439067
420 1 0.99691 0.184685 0.432249
444 1 0.748178 0.186755 0.439462
1301 1 0.628405 0.498016 0.25786
455 1 0.191096 0.253162 0.435393
408 1 0.622481 0.0601926 0.441329
475 1 0.809072 0.245037 0.441423
131 1 0.0675417 0.00144028 0.189554
388 1 -0.000410056 0.0625568 0.441995
419 1 0.0593071 0.125923 0.432463
392 1 0.128554 0.0639063 0.435551
396 1 0.248783 0.0663727 0.440021
400 1 0.372665 0.064061 0.441204
471 1 0.682454 0.251681 0.441286
404 1 0.502103 0.0681406 0.440992
601 1 0.752201 0.246388 0.500573
139 1 0.312107 0.00344642 0.189823
1307 1 0.811783 0.498726 0.307135
113 1 0.50152 0.370118 -0.00016148
65 1 0.00407566 0.251471 0.00565404
271 1 0.437751 0.00293773 0.318011
10 1 0.316433 0.0590099 0.00487538
33 1 0.00125585 0.12494 -0.00179337
549 1 0.122787 0.125023 0.497586
522 1 0.312926 0.0611798 0.49843
269 1 0.372721 -0.000401333 0.246749
545 1 0.997223 0.126199 0.500268
630 1 0.686177 0.442109 0.497133
590 1 0.435159 0.30709 0.499513
53 1 0.630751 0.127503 0.0037115
114 1 0.566596 0.433242 0.000112877
638 1 0.938202 0.433842 0.494447
622 1 0.437339 0.439952 0.498414
58 1 0.813639 0.185866 0.00404436
1541 1 0.123349 0.500573 0.494508
49 1 0.505741 0.130204 0.00540348
14 1 0.445351 0.0660597 0.00168929
109 1 0.374326 0.372945 0.00550469
93 1 0.877496 0.250644 0.00199243
121 1 0.749635 0.377922 -0.000354793
565 1 0.623803 0.126575 0.499607
1553 1 0.500782 0.498253 0.495074
581 1 0.124004 0.249049 0.495934
106 1 0.316725 0.444475 0.00315317
614 1 0.187486 0.439297 0.495087
1041 1 0.499902 0.497155 0.00283215
569 1 0.748219 0.124119 0.495546
573 1 0.875528 0.125964 0.495637
538 1 0.812181 0.0639254 0.496238
633 1 0.753433 0.381679 0.496356
1567 1 0.935173 0.497602 0.561057
1803 1 0.31142 0.495862 0.81207
101 1 0.124101 0.379471 0.999921
540 1 0.754954 0.0557205 0.560298
1927 1 0.186974 0.499507 0.931803
1815 1 0.687591 0.498811 0.810477
1949 1 0.880617 0.497402 0.875058
1923 1 0.0655259 0.500439 0.936981
1817 1 0.749297 0.498878 0.750793
532 1 0.494337 0.0531714 0.561628
26 1 0.81036 0.0628941 1.00059
536 1 0.62174 0.0586737 0.564889
903 1 0.189814 0.00139456 0.942542
544 1 0.869194 0.0608223 0.563045
547 1 0.0577739 0.128096 0.558963
564 1 0.495567 0.193517 0.561507
50 1 0.566331 0.18903 0.999162
572 1 0.748401 0.184354 0.562076
905 1 0.248164 0.000485225 0.884092
552 1 0.121897 0.186307 0.565478
583 1 0.183995 0.248961 0.559678
560 1 0.370318 0.181756 0.559667
595 1 0.558839 0.24656 0.56704
911 1 0.444312 0.00611202 0.940775
599 1 0.686093 0.250334 0.557813
1029 1 0.126104 0.50032 0.99996
597 1 0.617015 0.248814 0.505378
576 1 0.868793 0.185361 0.564559
548 1 0.99451 0.18593 0.559263
1795 1 0.0611789 0.498602 0.814826
1813 1 0.62326 0.500933 0.745535
588 1 0.246164 0.310315 0.564982
34 1 0.0667575 0.192443 0.995912
1551 1 0.439938 0.499145 0.560017
1937 1 0.497283 0.497101 0.882842
607 1 0.933158 0.241291 0.563424
78 1 0.43853 0.313584 0.992603
619 1 0.310331 0.37441 0.562756
623 1 0.437002 0.365026 0.558671
533 1 0.628762 0.00178855 0.499482
600 1 0.625482 0.314961 0.554355
635 1 0.806743 0.372785 0.563594
554 1 0.309702 0.185567 0.501875
580 1 0.0026779 0.309326 0.562134
612 1 0.993945 0.438464 0.560941
769 1 0.00614758 8.1323e-05 0.754733
611 1 0.0641193 0.375172 0.562971
46 1 0.438433 0.185563 0.995335
86 1 0.682789 0.311512 0.996725
589 1 0.375977 0.24561 0.500635
631 1 0.690687 0.378626 0.56021
636 1 0.756671 0.435935 0.561524
640 1 0.872528 0.439298 0.562513
616 1 0.123372 0.436742 0.559217
620 1 0.250245 0.436442 0.561396
1931 1 0.30988 0.496975 0.935541
624 1 0.370302 0.438795 0.55032
632 1 0.629974 0.437706 0.562015
523 1 0.313134 0.00228554 0.558053
1691 1 0.809498 0.496363 0.692007
927 1 0.936247 0.0013058 0.940653
1933 1 0.36917 0.495074 0.870709
105 1 0.253099 0.374673 0.999467
524 1 0.248317 0.0548508 0.555352
102 1 0.186675 0.436508 0.994529
1947 1 0.80821 0.495033 0.938875
642 1 0.0619453 0.0684175 0.618766
520 1 0.127345 0.0627123 0.568586
551 1 0.19244 0.119032 0.565778
528 1 0.372958 0.0574105 0.56271
559 1 0.437302 0.12445 0.560439
563 1 0.56431 0.124605 0.566186
670 1 0.934635 0.0573897 0.626355
516 1 0.995846 0.0620977 0.561929
681 1 0.252515 0.127914 0.628408
555 1 0.310395 0.120266 0.568498
686 1 0.436142 0.190769 0.625318
689 1 0.497083 0.11881 0.622912
693 1 0.625794 0.114009 0.628798
567 1 0.686501 0.12347 0.560569
571 1 0.807156 0.118797 0.562964
698 1 0.81446 0.186047 0.629207
575 1 0.937428 0.12786 0.558965
673 1 -0.000726591 0.124542 0.624823
674 1 0.0600905 0.189357 0.622352
579 1 0.0610962 0.2463 0.560996
709 1 0.127135 0.254134 0.625731
556 1 0.245 0.186078 0.565993
591 1 0.433829 0.250834 0.566227
690 1 0.565941 0.184588 0.623938
568 1 0.624196 0.181794 0.562775
729 1 0.751634 0.251181 0.621481
706 1 0.0630303 0.310216 0.621375
584 1 0.118931 0.317019 0.559389
587 1 0.312162 0.249655 0.563212
714 1 0.313159 0.316047 0.624119
717 1 0.369601 0.245914 0.622305
596 1 0.49917 0.30527 0.566325
721 1 0.498298 0.249369 0.626581
725 1 0.625894 0.243914 0.62845
604 1 0.747744 0.313615 0.5619
603 1 0.813483 0.255637 0.563932
733 1 0.874179 0.24804 0.631076
615 1 0.182376 0.370331 0.555412
592 1 0.37282 0.307469 0.563213
753 1 0.504453 0.376688 0.627764
722 1 0.568273 0.316391 0.62335
608 1 0.880234 0.306142 0.558683
734 1 0.941862 0.314601 0.62031
737 1 0.997875 0.375505 0.617431
741 1 0.121519 0.373849 0.621845
749 1 0.377857 0.372882 0.624992
627 1 0.564306 0.380384 0.562007
765 1 0.870131 0.37595 0.624044
639 1 0.935352 0.370726 0.561362
766 1 0.939932 0.437357 0.62778
1000 1 0.125164 0.44089 0.938215
742 1 0.185208 0.434464 0.618704
746 1 0.312937 0.439323 0.627543
628 1 0.501701 0.43301 0.564299
899 1 0.0664454 -3.77619e-05 0.942282
762 1 0.810466 0.436694 0.62459
77 1 0.376883 0.254176 0.990478
89 1 0.74831 0.249728 0.997453
562 1 0.563219 0.187103 0.501727
1929 1 0.254654 0.497638 0.870526
654 1 0.434492 0.059413 0.623962
90 1 0.810009 0.310068 0.997194
987 1 0.818914 0.252452 0.931672
666 1 0.809461 0.058542 0.624979
1024 1 0.881116 0.435715 0.93513
648 1 0.126035 0.0634642 0.693467
646 1 0.189737 0.0554733 0.622331
652 1 0.252137 0.0620809 0.689834
650 1 0.309166 0.057423 0.622631
685 1 0.372937 0.122415 0.624823
658 1 0.554371 0.0532599 0.620089
662 1 0.687446 0.0577171 0.62881
697 1 0.745974 0.122556 0.620109
703 1 0.941987 0.120506 0.687247
644 1 0.995611 0.062599 0.686037
675 1 0.0603911 0.120408 0.68686
677 1 0.129745 0.123708 0.625264
700 1 0.745008 0.182397 0.682675
699 1 0.802677 0.120677 0.682624
701 1 0.870889 0.119468 0.626184
678 1 0.188297 0.187707 0.624971
713 1 0.255031 0.252274 0.624613
682 1 0.315609 0.1844 0.629322
696 1 0.627261 0.179277 0.686581
694 1 0.685546 0.183236 0.619006
731 1 0.809101 0.245487 0.691426
704 1 0.873253 0.179034 0.690879
702 1 0.931789 0.182325 0.624285
676 1 0.0039354 0.188587 0.692279
705 1 0.99998 0.246616 0.620229
707 1 0.0615012 0.25312 0.690672
710 1 0.184244 0.314725 0.623063
716 1 0.252807 0.309275 0.690979
718 1 0.433436 0.311886 0.628363
719 1 0.436991 0.24748 0.686728
724 1 0.498788 0.309648 0.688136
723 1 0.562982 0.251965 0.686553
726 1 0.687235 0.312433 0.625188
736 1 0.875331 0.313221 0.693692
720 1 0.377448 0.310965 0.685387
751 1 0.438797 0.386357 0.681768
757 1 0.626112 0.374769 0.614624
728 1 0.626615 0.313695 0.684582
730 1 0.813571 0.308357 0.634723
708 1 0.000431024 0.315217 0.679257
739 1 0.0657559 0.377676 0.684095
744 1 0.129635 0.431771 0.682699
745 1 0.247248 0.375135 0.623913
752 1 0.377186 0.440939 0.684647
750 1 0.427998 0.438709 0.615802
755 1 0.558598 0.372559 0.688923
761 1 0.749235 0.37117 0.624029
764 1 0.752556 0.431468 0.68907
768 1 0.872851 0.43863 0.685719
767 1 0.938714 0.376073 0.684217
740 1 0.997829 0.436927 0.689735
738 1 0.0675459 0.440217 0.622519
1020 1 0.745936 0.436534 0.936566
923 1 0.815646 0.000485198 0.941128
983 1 0.688268 0.251809 0.932449
754 1 0.564623 0.437899 0.621293
952 1 0.627864 0.185438 0.937879
760 1 0.623107 0.434817 0.684122
758 1 0.690926 0.440508 0.622931
1015 1 0.688344 0.371599 0.933616
1012 1 0.501423 0.428846 0.93807
778 1 0.309694 0.061006 0.756629
656 1 0.37472 0.0553043 0.68579
782 1 0.436352 0.0615155 0.755818
660 1 0.499243 0.0632324 0.686009
979 1 0.562801 0.246301 0.935252
971 1 0.31598 0.24666 0.93386
1693 1 0.880786 0.500241 0.627116
917 1 0.627931 -0.000714466 0.878095
679 1 0.18789 0.124671 0.692504
809 1 0.250256 0.124128 0.753491
683 1 0.310819 0.121779 0.693211
664 1 0.621184 0.0563133 0.680746
668 1 0.747303 0.0541342 0.689684
672 1 0.869972 0.0561286 0.685972
801 1 0.999503 0.127064 0.7544
806 1 0.185849 0.187873 0.748125
684 1 0.250279 0.188419 0.683903
687 1 0.435682 0.132677 0.692545
691 1 0.563335 0.122619 0.686681
695 1 0.688187 0.117681 0.688292
829 1 0.877228 0.116752 0.745277
680 1 0.124536 0.189286 0.688471
688 1 0.374828 0.190723 0.688265
692 1 0.504225 0.181172 0.679732
822 1 0.687929 0.19102 0.750082
711 1 0.181408 0.248966 0.69007
715 1 0.311841 0.245616 0.686635
846 1 0.43827 0.318042 0.745949
849 1 0.49224 0.252601 0.750316
853 1 0.624002 0.251627 0.750764
727 1 0.687179 0.254149 0.684952
732 1 0.751361 0.313839 0.689769
858 1 0.814156 0.313094 0.754475
735 1 0.940136 0.243019 0.685127
712 1 0.1206 0.314957 0.691579
743 1 0.18675 0.369265 0.688219
881 1 0.498934 0.378939 0.749052
854 1 0.689372 0.312123 0.750593
889 1 0.754502 0.375518 0.751598
763 1 0.810931 0.369924 0.688259
873 1 0.249033 0.376888 0.742855
747 1 0.317467 0.375851 0.684084
878 1 0.437584 0.434891 0.750788
759 1 0.689955 0.370531 0.689407
886 1 0.691373 0.439334 0.754017
890 1 0.810021 0.43939 0.751129
894 1 0.940037 0.437222 0.749885
866 1 0.0633799 0.435544 0.747586
748 1 0.251877 0.437798 0.686129
874 1 0.317441 0.441283 0.747528
1003 1 0.309496 0.373665 0.94216
756 1 0.504489 0.442104 0.683854
605 1 0.86798 0.24287 0.499692
1023 1 0.942439 0.377363 0.940464
1921 1 0.000460795 0.497414 0.876594
770 1 0.0643502 0.0632213 0.754401
774 1 0.183975 0.0611524 0.751431
780 1 0.249571 0.0602839 0.815988
784 1 0.374789 0.0647235 0.816771
964 1 0.999892 0.319187 0.932565
805 1 0.126897 0.128743 0.748743
811 1 0.307115 0.125388 0.815557
813 1 0.37353 0.121856 0.751521
815 1 0.436659 0.12835 0.815081
786 1 0.565238 0.0578508 0.748002
821 1 0.624914 0.119395 0.743124
790 1 0.692625 0.0545231 0.748905
796 1 0.7517 0.0646522 0.817087
794 1 0.809456 0.0610173 0.753995
800 1 0.877826 0.0567717 0.812149
798 1 0.941037 0.059297 0.752961
802 1 0.0622932 0.186488 0.752514
810 1 0.309809 0.187619 0.744666
814 1 0.434422 0.190902 0.753435
817 1 0.502317 0.116848 0.750217
824 1 0.632612 0.181875 0.81371
823 1 0.689142 0.11807 0.808314
825 1 0.74995 0.123404 0.751686
843 1 0.314394 0.253986 0.806509
845 1 0.376129 0.248691 0.746063
818 1 0.563186 0.184783 0.748549
826 1 0.813326 0.184424 0.750644
830 1 0.935884 0.184752 0.75165
833 1 0.998168 0.254069 0.749379
834 1 0.0618419 0.312583 0.755629
837 1 0.121531 0.248847 0.75032
838 1 0.187488 0.308493 0.751981
841 1 0.246844 0.246449 0.748737
850 1 0.564588 0.314256 0.75065
856 1 0.626319 0.315315 0.810517
855 1 0.688972 0.251611 0.811254
857 1 0.75241 0.252122 0.750282
859 1 0.811127 0.253169 0.813409
861 1 0.873693 0.247684 0.746654
863 1 0.934344 0.25541 0.810091
865 1 0.996046 0.372472 0.746942
867 1 0.0660509 0.377272 0.810888
869 1 0.134259 0.374155 0.74962
842 1 0.308596 0.318511 0.74843
885 1 0.62176 0.375544 0.74637
887 1 0.685929 0.375462 0.81464
860 1 0.754456 0.31488 0.81358
893 1 0.878021 0.381071 0.75404
862 1 0.939172 0.314587 0.751856
870 1 0.189785 0.438564 0.745794
877 1 0.377119 0.3754 0.746123
879 1 0.439227 0.374625 0.812943
884 1 0.504941 0.435973 0.817199
882 1 0.563736 0.436307 0.747974
1019 1 0.812572 0.376089 0.942224
872 1 0.133668 0.436063 0.810955
876 1 0.249863 0.440798 0.806449
880 1 0.374224 0.43543 0.810465
1823 1 0.936743 0.499166 0.813773
892 1 0.749656 0.439759 0.817102
85 1 0.626874 0.244191 0.994641
772 1 0.998995 0.0650535 0.816418
776 1 0.123457 0.0656842 0.813445
902 1 0.187594 0.0617037 0.88143
792 1 0.624444 0.0617032 0.811393
918 1 0.685832 0.0564408 0.872824
42 1 0.317463 0.186509 0.994288
803 1 0.0574035 0.125058 0.810976
933 1 0.120491 0.123861 0.880769
807 1 0.188979 0.128155 0.811522
937 1 0.245335 0.125825 0.87306
906 1 0.309447 0.0599168 0.874479
941 1 0.377597 0.121807 0.875675
788 1 0.501385 0.0593235 0.810196
819 1 0.570313 0.119385 0.807558
957 1 0.880389 0.124512 0.872352
804 1 0.00149597 0.186764 0.821083
808 1 0.12415 0.186326 0.811808
934 1 0.190174 0.193979 0.873925
820 1 0.497841 0.189254 0.808176
827 1 0.808875 0.132646 0.814976
831 1 0.938073 0.120856 0.814541
835 1 0.0654754 0.25294 0.814353
839 1 0.185465 0.249654 0.81249
812 1 0.251826 0.191854 0.812655
969 1 0.255785 0.249969 0.875819
816 1 0.371208 0.183796 0.8073
973 1 0.378042 0.245798 0.87055
847 1 0.432741 0.259909 0.811594
851 1 0.566953 0.24514 0.815013
981 1 0.624759 0.247518 0.878903
828 1 0.751248 0.189548 0.809009
832 1 0.874143 0.191151 0.810299
836 1 0.000236722 0.316452 0.816436
840 1 0.130322 0.316267 0.816497
844 1 0.254139 0.311087 0.814539
848 1 0.370639 0.317413 0.807083
852 1 0.499726 0.31549 0.808558
982 1 0.690869 0.31359 0.87095
864 1 0.877929 0.315451 0.81177
997 1 0.129122 0.369779 0.874129
970 1 0.316048 0.32305 0.877217
1009 1 0.500161 0.370147 0.875226
1013 1 0.620768 0.372237 0.874137
986 1 0.807898 0.316357 0.875766
895 1 0.939778 0.379136 0.810146
868 1 0.00586441 0.434624 0.813291
871 1 0.195928 0.378763 0.808654
875 1 0.30702 0.38007 0.806468
1005 1 0.38105 0.376515 0.872917
1006 1 0.441596 0.439978 0.87727
883 1 0.562359 0.37292 0.808896
1010 1 0.563684 0.441236 0.875944
888 1 0.624373 0.434169 0.810761
1014 1 0.683995 0.433754 0.873986
891 1 0.814291 0.381654 0.813866
896 1 0.875633 0.441107 0.814169
994 1 0.0660894 0.43428 0.874149
998 1 0.188298 0.429008 0.870586
1002 1 0.314711 0.429144 0.876254
963 1 0.0659956 0.249717 0.933308
54 1 0.696183 0.185403 0.996132
645 1 0.121022 0.000150586 0.629993
904 1 0.127181 0.0686756 0.94251
995 1 0.0649824 0.377573 0.937503
992 1 0.878269 0.317158 0.936274
910 1 0.444483 0.0592047 0.877139
570 1 0.80738 0.185533 0.502005
914 1 0.563543 0.0556407 0.873403
920 1 0.628571 0.0592061 0.938772
922 1 0.809867 0.0642479 0.884054
907 1 0.30929 0.00350401 0.942671
926 1 0.938748 0.0624834 0.88144
988 1 0.750605 0.312978 0.935589
542 1 0.933406 0.0640396 0.504567
929 1 0.998925 0.122244 0.879424
900 1 0.00316534 0.0567987 0.941012
898 1 0.0595805 0.0624231 0.880285
928 1 0.874444 0.0607809 0.93928
931 1 0.0580293 0.124433 0.939227
938 1 0.315673 0.19061 0.868037
942 1 0.439563 0.182042 0.874942
943 1 0.441226 0.122916 0.935367
945 1 0.500744 0.122384 0.870613
946 1 0.562001 0.179763 0.869414
947 1 0.563234 0.119657 0.938724
949 1 0.634624 0.123625 0.875115
951 1 0.688397 0.12737 0.937104
953 1 0.757058 0.127742 0.879609