ITEM: TIMESTEP
100000
ITEM: NUMBER OF ATOMS
2048
ITEM: BOX BOUNDS pp pp pp
0.0000000000000000e+00 1.1635780856594225e+01
0.0000000000000000e+00 1.1635780856594225e+01
0.0000000000000000e+00 1.1635780856594225e+01
ITEM: ATOMS id type xs ys zs
2 1 0.0655716 0.0602806 0.00401406
5 1 0.130488 0.00344416 0.00549844
7 1 0.189931 0.000883073 0.0624336
12 1 0.256695 0.060151 0.0608975
10 1 0.314723 0.0624984 3.40404e-05
16 1 0.374873 0.0541745 0.0576454
15 1 0.438426 0.00129336 0.0495747
20 1 0.496019 0.0610254 0.0608134
24 1 0.630571 0.061895 0.0614653
25 1 0.751631 0.00519943 0.00511249
29 1 0.873348 0.00453712 0.00133595
30 1 0.93281 0.0622195 0.00309456
1 1 0.986478 0.00151851 0.00200273
4 1 0.0032893 0.0640828 0.0610806
35 1 0.062847 0.123794 0.0621019
53 1 0.624219 0.122056 0.00484028
55 1 0.689967 0.123344 0.0544713
57 1 0.750427 0.115532 0.000889063
26 1 0.819266 0.0685098 0.00293228
34 1 0.0585238 0.185881 0.00624721
40 1 0.126477 0.178831 0.0617401
37 1 0.1214 0.126517 0.000174048
44 1 0.244521 0.180689 0.0597491
48 1 0.377394 0.186125 0.0616695
45 1 0.378322 0.125849 0.00140589
49 1 0.503563 0.127002 2.60561e-05
56 1 0.622859 0.183744 0.0602691
59 1 0.809835 0.128244 0.0589641
33 1 0.994049 0.133032 0.00132173
38 1 0.183108 0.19355 0.00473861
75 1 0.305864 0.243261 0.0583003
77 1 0.371684 0.245694 0.00105292
46 1 0.436026 0.189612 0.00167739
85 1 0.625876 0.248099 0.00406525
60 1 0.745092 0.188546 0.0555927
62 1 0.931885 0.194606 0.000651369
72 1 0.125267 0.305977 0.0583865
79 1 0.441794 0.251129 0.0553577
87 1 0.690327 0.259215 0.0552875
91 1 0.818236 0.250748 0.0567738
90 1 0.811472 0.311068 0.00561569
95 1 0.940969 0.252741 0.0617596
76 1 0.250421 0.312903 0.0566129
80 1 0.379374 0.312608 0.0578008
78 1 0.442571 0.315936 0.000272783
88 1 0.623337 0.312862 0.0599221
121 1 0.75599 0.373093 0.00973923
94 1 0.937895 0.314226 9.58161e-05
99 1 0.06681 0.37972 0.0603008
102 1 0.193418 0.430784 0.00179288
105 1 0.249536 0.375441 0.000249421
111 1 0.443049 0.37701 0.056425
115 1 0.558447 0.376295 0.0533335
119 1 0.688591 0.378948 0.0597915
122 1 0.813442 0.434362 0.00526026
127 1 0.92963 0.384134 0.0595127
97 1 0.994529 0.377503 0.00217649
104 1 0.120965 0.440814 0.0567402
1031 1 0.185315 0.498239 0.0600153
1033 1 0.251103 0.496654 0.000619709
106 1 0.314702 0.438241 0.00491475
1037 1 0.379477 0.498543 0.000898062
110 1 0.440512 0.437769 0.00339339
116 1 0.503057 0.44129 0.0622447
124 1 0.750084 0.438056 0.0621352
128 1 0.876295 0.447258 0.0622314
3 1 0.058775 0.00468715 0.0648908
8 1 0.123068 0.0612962 0.065553
133 1 0.124753 0.000320914 0.117057
142 1 0.4358 0.0612392 0.123981
28 1 0.738975 0.0623415 0.0652097
27 1 0.810029 0.00173346 0.0638204
158 1 0.939851 0.0618475 0.11937
31 1 0.933764 0.0038669 0.0627245
129 1 0.995339 0.00339085 0.123349
39 1 0.184395 0.117272 0.0627112
43 1 0.314358 0.118077 0.0626118
47 1 0.437041 0.123005 0.0674798
51 1 0.562126 0.117035 0.0673065
150 1 0.683804 0.0628763 0.12441
154 1 0.80858 0.0669793 0.120778
32 1 0.876616 0.0659908 0.0657239
161 1 0.0046931 0.127011 0.12407
162 1 0.0659981 0.186186 0.120637
166 1 0.189983 0.186416 0.121979
170 1 0.314692 0.180625 0.122303
174 1 0.437711 0.185544 0.12284
177 1 0.499895 0.129288 0.121314
178 1 0.565353 0.185106 0.12446
181 1 0.627401 0.126885 0.12338
182 1 0.690441 0.183849 0.114124
185 1 0.751517 0.130762 0.117381
63 1 0.936519 0.126201 0.065178
190 1 0.934107 0.183861 0.123966
67 1 0.0530934 0.247138 0.0635484
201 1 0.246715 0.247593 0.123915
205 1 0.380665 0.243936 0.123748
52 1 0.502874 0.190342 0.0654259
83 1 0.562969 0.244895 0.068983
213 1 0.633138 0.245354 0.116457
217 1 0.750183 0.243962 0.119705
186 1 0.815517 0.191902 0.121713
64 1 0.874641 0.189652 0.0632346
36 1 0.994806 0.190463 0.0659021
71 1 0.190031 0.253622 0.0628421
198 1 0.180737 0.310416 0.123307
202 1 0.318265 0.308992 0.116508
92 1 0.75297 0.308069 0.0633719
218 1 0.809464 0.312347 0.120616
96 1 0.882233 0.312139 0.0650495
221 1 0.874165 0.254587 0.124241
193 1 0.997803 0.253257 0.122055
194 1 0.0571189 0.312835 0.121725
229 1 0.121267 0.370981 0.121493
233 1 0.256037 0.363258 0.122223
84 1 0.497539 0.315443 0.0667487
210 1 0.569331 0.313962 0.121419
245 1 0.627509 0.374362 0.120965
214 1 0.683097 0.315388 0.123576
123 1 0.824372 0.372841 0.062715
68 1 0.994652 0.320256 0.0641186
103 1 0.194939 0.375832 0.0662201
230 1 0.178829 0.433077 0.119403
107 1 0.316256 0.375281 0.0656394
241 1 0.498695 0.383698 0.123092
246 1 0.685804 0.435305 0.122098
250 1 0.811065 0.437088 0.117887
100 1 0.0079798 0.438192 0.067822
108 1 0.251778 0.438793 0.0638209
1035 1 0.308076 0.498747 0.0736818
112 1 0.3752 0.44509 0.0658828
1043 1 0.571435 0.496525 0.0656701
120 1 0.62555 0.438928 0.0687865
1055 1 0.938792 0.499597 0.066337
254 1 0.945359 0.43781 0.124681
131 1 0.0584603 0.00414322 0.181937
136 1 0.132377 0.0618085 0.187047
134 1 0.190509 0.0559703 0.125471
138 1 0.31902 0.0583576 0.128785
146 1 0.55951 0.0618474 0.128327
149 1 0.626822 0.00154432 0.128772
153 1 0.744314 0.00669972 0.130205
157 1 0.867858 0.00135227 0.126237
159 1 0.938432 0.00189347 0.186591
130 1 0.0639297 0.0641432 0.12611
165 1 0.121495 0.124834 0.125911
167 1 0.189838 0.122825 0.186306
169 1 0.255965 0.115812 0.12793
173 1 0.378068 0.123479 0.128886
148 1 0.502511 0.0679364 0.18745
160 1 0.87836 0.0628864 0.181198
191 1 0.934201 0.122512 0.183164
183 1 0.692118 0.133183 0.180576
187 1 0.808263 0.127314 0.179793
189 1 0.868286 0.129669 0.12794
192 1 0.877588 0.186874 0.18577
197 1 0.121477 0.243867 0.129692
199 1 0.188679 0.247036 0.183423
203 1 0.32161 0.240251 0.179958
209 1 0.496498 0.249701 0.1284
211 1 0.570303 0.249702 0.181772
215 1 0.690288 0.242705 0.183245
164 1 0.994779 0.192534 0.175058
204 1 0.251446 0.3041 0.184362
220 1 0.750892 0.31054 0.180593
223 1 0.93969 0.252568 0.183198
200 1 0.129511 0.313669 0.186728
235 1 0.311256 0.373195 0.184282
208 1 0.370086 0.317901 0.187156
206 1 0.43543 0.313177 0.12954
243 1 0.566931 0.367242 0.184918
249 1 0.75068 0.368097 0.12524
253 1 0.875535 0.373774 0.130973
222 1 0.943483 0.320159 0.12759
225 1 0.00472303 0.384036 0.132256
236 1 0.242605 0.4367 0.187204
234 1 0.309637 0.434781 0.125834
237 1 0.37503 0.375635 0.126148
240 1 0.370414 0.435 0.18484
239 1 0.427467 0.378051 0.187066
242 1 0.562482 0.435749 0.126781
248 1 0.626079 0.434869 0.18379
252 1 0.740547 0.435257 0.184214
255 1 0.946292 0.376401 0.187148
226 1 0.0631496 0.447451 0.131464
238 1 0.433279 0.438846 0.128542
1169 1 0.498625 0.496871 0.133579
1171 1 0.564604 0.496345 0.183071
1173 1 0.626846 0.496903 0.129116
1177 1 0.742566 0.49715 0.129681
1179 1 0.820826 0.495487 0.185455
256 1 0.88217 0.442557 0.17904
261 1 0.123818 0.00507042 0.248348
135 1 0.191028 0.00013924 0.191213
140 1 0.248134 0.058377 0.192748
273 1 0.506254 0.00636095 0.249701
152 1 0.6197 0.06155 0.191821
151 1 0.689944 0.00457074 0.194043
156 1 0.752617 0.0604907 0.191923
132 1 0.00122514 0.0649278 0.192966
163 1 0.0604328 0.123927 0.195294
297 1 0.244894 0.120302 0.249762
171 1 0.314743 0.122483 0.188342
144 1 0.379443 0.0638922 0.194021
179 1 0.564601 0.122221 0.187758
282 1 0.817476 0.0655723 0.24183
317 1 0.881504 0.124334 0.246441
168 1 0.123194 0.183796 0.192035
176 1 0.379617 0.17963 0.188324
175 1 0.445863 0.130617 0.191228
313 1 0.753867 0.125229 0.244214
314 1 0.817003 0.180694 0.247583
172 1 0.260182 0.190771 0.187736
329 1 0.247927 0.245549 0.249403
207 1 0.440584 0.244118 0.189457
180 1 0.507142 0.195157 0.19151
306 1 0.562751 0.189335 0.24989
184 1 0.627102 0.188155 0.189628
310 1 0.687593 0.189589 0.246937
188 1 0.753296 0.188002 0.189645
219 1 0.814194 0.245038 0.195841
195 1 0.0646912 0.259444 0.189919
325 1 0.126391 0.250544 0.24712
326 1 0.188774 0.307531 0.247289
333 1 0.378058 0.252059 0.243165
334 1 0.437388 0.310421 0.245685
212 1 0.497427 0.307884 0.188044
337 1 0.507326 0.257757 0.248852
216 1 0.628143 0.304479 0.189082
342 1 0.694071 0.306279 0.24926
345 1 0.75215 0.251418 0.248941
321 1 0.999643 0.253984 0.241004
196 1 0.0029538 0.316899 0.187963
322 1 0.0676424 0.318767 0.248657
361 1 0.249916 0.367982 0.245882
247 1 0.686558 0.36499 0.195585
251 1 0.807831 0.369375 0.19774
224 1 0.868348 0.313431 0.195442
227 1 0.0663384 0.379723 0.189285
232 1 0.126669 0.431868 0.188763
231 1 0.184573 0.376088 0.192591
362 1 0.3021 0.437229 0.248965
366 1 0.424071 0.437005 0.2462
244 1 0.490431 0.433003 0.189798
373 1 0.624587 0.379752 0.245777
382 1 0.936357 0.434472 0.244514
1163 1 0.300329 0.494637 0.18877
1293 1 0.361075 0.499953 0.248819
1167 1 0.434402 0.495604 0.188496
1297 1 0.502768 0.492192 0.247912
1301 1 0.621245 0.487516 0.24924
1175 1 0.68216 0.499302 0.188743
228 1 0.993321 0.446455 0.191108
258 1 0.0644076 0.0608639 0.251222
265 1 0.252148 0.00497053 0.259126
266 1 0.315937 0.0601066 0.258517
272 1 0.378 0.0589125 0.311928
270 1 0.441426 0.0576388 0.252977
277 1 0.623626 0.00521487 0.250768
281 1 0.743641 0.0018877 0.254304
285 1 0.881623 0.00548447 0.251717
286 1 0.942088 0.0616347 0.250103
260 1 0.00580232 0.06325 0.308239
262 1 0.183684 0.0644878 0.263677
274 1 0.56468 0.0665579 0.252496
278 1 0.677216 0.0704021 0.251621
293 1 0.119166 0.125611 0.253298
300 1 0.252131 0.18505 0.303862
298 1 0.316462 0.186363 0.25035
301 1 0.374227 0.125433 0.253197
305 1 0.495684 0.129307 0.256204
309 1 0.622559 0.134294 0.252025
311 1 0.688685 0.126667 0.309831
316 1 0.74908 0.18637 0.306142
319 1 0.936871 0.125061 0.304625
289 1 0.996225 0.125346 0.252746
292 1 0.00223047 0.189467 0.311514
290 1 0.0614576 0.189031 0.251599
294 1 0.186073 0.188661 0.251223
302 1 0.431605 0.193218 0.251017
347 1 0.81787 0.24209 0.311513
349 1 0.877381 0.249769 0.25146
318 1 0.938028 0.194184 0.251544
351 1 0.935909 0.246729 0.310664
324 1 0.00146239 0.304161 0.305573
327 1 0.179356 0.255888 0.307852
330 1 0.311222 0.308005 0.255839
336 1 0.380156 0.307439 0.310643
341 1 0.624686 0.250021 0.252868
344 1 0.629226 0.311352 0.309742
328 1 0.126801 0.317056 0.308478
363 1 0.30096 0.373793 0.307741
365 1 0.368693 0.369658 0.25517
367 1 0.433396 0.370557 0.312256
369 1 0.499679 0.36832 0.254418
338 1 0.565158 0.318368 0.252276
377 1 0.747312 0.372319 0.255539
346 1 0.816864 0.314486 0.263907
350 1 0.933229 0.314218 0.25031
383 1 0.943281 0.371901 0.309199
353 1 0.00152447 0.382042 0.250646
357 1 0.12369 0.377777 0.252213
358 1 0.18616 0.436003 0.253464
368 1 0.372566 0.428064 0.310958
372 1 0.49553 0.435615 0.306334
370 1 0.559915 0.426891 0.251874
374 1 0.694432 0.436665 0.253507
378 1 0.821652 0.436779 0.251903
379 1 0.816333 0.381305 0.31231
381 1 0.881326 0.376624 0.252784
354 1 0.0545431 0.440795 0.259082
1285 1 0.116285 0.49884 0.25239
1289 1 0.244585 0.496325 0.255014
1295 1 0.435032 0.499762 0.308632
1303 1 0.686349 0.49807 0.309992
1305 1 0.762708 0.499533 0.254024
1309 1 0.873754 0.494685 0.252046
264 1 0.11477 0.061384 0.317432
390 1 0.183613 0.0540395 0.370542
268 1 0.24912 0.0585414 0.325273
275 1 0.55956 0.0005517 0.31323
284 1 0.750122 0.0592092 0.314048
283 1 0.814075 0.0037051 0.313963
288 1 0.872135 0.0624147 0.317583
287 1 0.93768 0.00355536 0.324133
295 1 0.182568 0.124572 0.316917
276 1 0.49707 0.0637711 0.314586
280 1 0.624606 0.0627339 0.319382
441 1 0.749215 0.123948 0.373358
315 1 0.812135 0.122452 0.316497
414 1 0.939665 0.0660915 0.373303
291 1 0.0619135 0.128899 0.313469
296 1 0.127686 0.183709 0.315686
425 1 0.25129 0.127882 0.372723
299 1 0.316619 0.129156 0.31732
303 1 0.436972 0.127142 0.31432
308 1 0.505362 0.178741 0.322166
307 1 0.573518 0.125871 0.315626
442 1 0.811498 0.181469 0.371492
320 1 0.881228 0.18616 0.3199
323 1 0.0644457 0.249672 0.316832
457 1 0.237915 0.237894 0.366579
331 1 0.317365 0.24874 0.313179
304 1 0.381025 0.190891 0.315826
430 1 0.444226 0.188635 0.372492
335 1 0.449775 0.24639 0.316542
312 1 0.625703 0.189892 0.319869
449 1 0.995677 0.24967 0.373144
339 1 0.562725 0.250494 0.315783
469 1 0.62332 0.252418 0.372478
343 1 0.685166 0.251195 0.317274
348 1 0.759124 0.30992 0.318352
352 1 0.88041 0.311392 0.319994
355 1 0.0598142 0.370479 0.312891
485 1 0.116211 0.37203 0.36971
332 1 0.2388 0.31588 0.318268
458 1 0.300903 0.312533 0.369754
340 1 0.495428 0.31286 0.316372
371 1 0.566776 0.373537 0.316651
470 1 0.68322 0.313842 0.374206
509 1 0.879649 0.374532 0.3748
478 1 0.945536 0.317606 0.371334
481 1 0.00211781 0.382434 0.369975
359 1 0.184875 0.38034 0.317841
490 1 0.309162 0.432219 0.370796
494 1 0.44371 0.43016 0.372953
501 1 0.625307 0.375552 0.374765
375 1 0.692885 0.380105 0.321965
384 1 0.883617 0.431102 0.317041
482 1 0.0663018 0.441225 0.372751
360 1 0.121941 0.4377 0.315837
364 1 0.245447 0.437842 0.316079
1291 1 0.310479 0.495284 0.322025
498 1 0.549949 0.437545 0.370907
376 1 0.61423 0.444913 0.320749
380 1 0.756126 0.44116 0.315462
1307 1 0.813575 0.494272 0.318363
356 1 0.99414 0.445851 0.31618
387 1 0.0621814 0.0031679 0.435088
392 1 0.125024 0.0606782 0.429778
398 1 0.436595 0.0571813 0.375525
402 1 0.560668 0.060216 0.375606
406 1 0.677314 0.0587104 0.380475
409 1 0.749615 0.000713716 0.39133
410 1 0.801914 0.0594391 0.376066
413 1 0.87569 0.00143488 0.382246
385 1 0.995222 0.00436819 0.381825
386 1 0.0568596 0.0653565 0.378909
423 1 0.187413 0.115134 0.436423
394 1 0.321397 0.0675898 0.380003
404 1 0.502399 0.0643498 0.437483
433 1 0.498359 0.123234 0.381499
437 1 0.625688 0.122683 0.375914
417 1 0.0038511 0.132863 0.377864
421 1 0.11945 0.125307 0.377072
422 1 0.182657 0.179364 0.379478
426 1 0.314915 0.180107 0.376741
429 1 0.376874 0.126142 0.375371
434 1 0.569419 0.182019 0.379522
438 1 0.686169 0.183748 0.376771
445 1 0.875466 0.125867 0.376838
418 1 0.063086 0.192846 0.381753
453 1 0.123722 0.24646 0.377501
455 1 0.182275 0.242737 0.437304
428 1 0.248394 0.194554 0.429872
432 1 0.379556 0.195148 0.43627
465 1 0.5067 0.24672 0.376226
436 1 0.498573 0.196917 0.437454
444 1 0.749076 0.191077 0.435845
475 1 0.81614 0.246822 0.435829
477 1 0.880401 0.244905 0.383034
420 1 0.994954 0.193776 0.435512
446 1 0.942951 0.188351 0.37879
454 1 0.183696 0.309253 0.380756
460 1 0.246982 0.299513 0.432559
461 1 0.372096 0.253381 0.37697
464 1 0.371225 0.311176 0.436811
463 1 0.436895 0.253231 0.432234
466 1 0.568733 0.311488 0.377423
472 1 0.623053 0.308391 0.435839
473 1 0.751141 0.25472 0.381919
480 1 0.878388 0.309227 0.434286
450 1 0.0610701 0.312691 0.377346
489 1 0.243111 0.374204 0.37606
491 1 0.312175 0.364264 0.43166
493 1 0.378309 0.374546 0.381626
462 1 0.431653 0.313402 0.379906
497 1 0.502417 0.366774 0.377449
505 1 0.755883 0.370142 0.37501
476 1 0.743609 0.316736 0.432511
474 1 0.81562 0.315485 0.378265
487 1 0.178259 0.376724 0.43562
504 1 0.618267 0.437268 0.428859
506 1 0.815114 0.431129 0.379246
512 1 0.880966 0.430321 0.432167
484 1 0.00296309 0.441607 0.434053
488 1 0.121393 0.439978 0.432566
486 1 0.18803 0.438103 0.37665
492 1 0.241866 0.441177 0.435734
1419 1 0.307299 0.495562 0.436783
1421 1 0.370741 0.489735 0.37811
1423 1 0.428476 0.493131 0.43027
1427 1 0.56099 0.499371 0.435712
502 1 0.688953 0.44419 0.379284
1433 1 0.756775 0.497403 0.382424
1435 1 0.81821 0.499074 0.435053
510 1 0.94326 0.440529 0.378854
517 1 0.125348 0.00158177 0.489892
518 1 0.186736 0.0545244 0.496807
522 1 0.313245 0.0619069 0.495541
399 1 0.439326 0.00190684 0.443294
403 1 0.55822 0.00319635 0.444613
412 1 0.752858 0.0591422 0.449049
416 1 0.872149 0.0611343 0.441875
514 1 0.0616944 0.065468 0.49679
396 1 0.254222 0.0653847 0.440394
400 1 0.376327 0.0678607 0.442102
435 1 0.561157 0.123417 0.43858
408 1 0.620168 0.0648236 0.448385
439 1 0.690376 0.113686 0.443015
443 1 0.810305 0.117234 0.43857
447 1 0.933486 0.118264 0.440886
388 1 0.998952 0.0638195 0.439977
545 1 0.000101652 0.128363 0.493734
419 1 0.0608884 0.125993 0.440605
549 1 0.128638 0.126105 0.495573
553 1 0.247951 0.13097 0.491726
427 1 0.320811 0.132247 0.441973
431 1 0.440387 0.130094 0.438186
561 1 0.502501 0.132372 0.496659
562 1 0.568812 0.1814 0.498578
440 1 0.633292 0.18513 0.437792
448 1 0.877537 0.184529 0.439923
546 1 0.0600034 0.19273 0.498416
451 1 0.0596465 0.248913 0.439344
424 1 0.123894 0.188444 0.440538
585 1 0.250728 0.244592 0.499419
459 1 0.317284 0.247871 0.441053
558 1 0.434039 0.195191 0.497906
467 1 0.571348 0.248777 0.438506
597 1 0.628674 0.248093 0.499721
471 1 0.686226 0.247147 0.442054
452 1 0.00207078 0.30392 0.439357
456 1 0.126555 0.308365 0.451269
468 1 0.500449 0.310571 0.444647
598 1 0.688727 0.307866 0.497179
602 1 0.804567 0.308431 0.492454
479 1 0.936614 0.250668 0.445105
586 1 0.307697 0.312997 0.495494
621 1 0.371374 0.371716 0.497313
495 1 0.441599 0.371475 0.437674
625 1 0.500746 0.371218 0.497873
499 1 0.56557 0.372874 0.442091
633 1 0.75036 0.369331 0.495396
507 1 0.823325 0.372916 0.438395
511 1 0.944517 0.370328 0.439884
483 1 0.0641353 0.382906 0.437526
614 1 0.18 0.430647 0.499449
617 1 0.249889 0.381756 0.49682
618 1 0.31217 0.433702 0.497728
496 1 0.373115 0.434315 0.441839
622 1 0.441541 0.430287 0.499189
503 1 0.685462 0.381763 0.440627
637 1 0.881751 0.383722 0.496125
500 1 0.499167 0.450474 0.439158
626 1 0.558926 0.4403 0.49711
630 1 0.682945 0.438424 0.49846
508 1 0.745296 0.441162 0.438048
1565 1 0.871167 0.499231 0.497085
638 1 0.942119 0.441177 0.495251
513 1 0.00184856 0.00173734 0.501757
515 1 0.0640821 0.00300355 0.559975
524 1 0.251923 0.0533877 0.550458
525 1 0.376626 0.00380525 0.501744
526 1 0.441506 0.0624319 0.502327
534 1 0.687768 0.0582289 0.505789
544 1 0.877599 0.0564429 0.559363
543 1 0.942383 0.0010283 0.561312
542 1 0.942412 0.0591136 0.501119
516 1 0.00780604 0.068749 0.558157
547 1 0.0642671 0.123938 0.559515
520 1 0.131982 0.0682026 0.560345
557 1 0.381592 0.12412 0.502619
530 1 0.5593 0.0701824 0.505416
540 1 0.753103 0.0648715 0.561241
538 1 0.813809 0.0640454 0.503164
573 1 0.871083 0.124427 0.501053
575 1 0.935335 0.1245 0.560578
548 1 0.00160605 0.187366 0.561981
550 1 0.186461 0.18554 0.516309
554 1 0.319031 0.18389 0.502311
559 1 0.43896 0.125898 0.557985
565 1 0.633488 0.126709 0.506047
572 1 0.751007 0.182549 0.561837
569 1 0.751175 0.127395 0.501888
574 1 0.934362 0.179755 0.500572
581 1 0.122283 0.244993 0.503459
591 1 0.437098 0.24944 0.559252
593 1 0.510759 0.246497 0.501822
566 1 0.694303 0.187616 0.506273
601 1 0.74896 0.247277 0.506788
570 1 0.811634 0.188039 0.507915
607 1 0.938755 0.23942 0.559388
577 1 0.0024029 0.251128 0.506188
578 1 0.0649103 0.307226 0.504423
584 1 0.126142 0.311597 0.561894
589 1 0.374083 0.255804 0.501848
596 1 0.501956 0.31053 0.559055
603 1 0.809417 0.253207 0.558611
605 1 0.870949 0.254099 0.501045
609 1 0.000707333 0.373051 0.50119
613 1 0.124774 0.37203 0.502316
582 1 0.191296 0.314249 0.503
615 1 0.188727 0.372238 0.562039
588 1 0.254039 0.317054 0.558972
590 1 0.436297 0.321705 0.504815
594 1 0.56875 0.315405 0.500514
627 1 0.563332 0.374075 0.556512
600 1 0.631277 0.322425 0.560877
631 1 0.692406 0.370219 0.553325
608 1 0.867589 0.313475 0.557987
606 1 0.935695 0.312856 0.500972
611 1 0.0634667 0.375943 0.562095
619 1 0.313952 0.376591 0.558365
623 1 0.440589 0.377888 0.561606
628 1 0.500748 0.435525 0.56212
629 1 0.624963 0.380601 0.501082
636 1 0.756383 0.433184 0.559425
634 1 0.818731 0.428575 0.502758
1537 1 0.0051891 0.494148 0.509379
610 1 0.077761 0.438827 0.502293
1543 1 0.189493 0.490382 0.55303
1547 1 0.301865 0.497603 0.551912
1549 1 0.378183 0.485421 0.501927
1551 1 0.436337 0.499318 0.557138
1553 1 0.497146 0.496414 0.506481
632 1 0.619782 0.443695 0.554337
1559 1 0.695604 0.496152 0.560037
1561 1 0.76307 0.495432 0.500497
641 1 0.00625652 0.00187671 0.618895
646 1 0.184369 0.0502781 0.620283
528 1 0.373819 0.0595736 0.567521
654 1 0.441015 0.0605974 0.622411
662 1 0.694663 0.0590234 0.623762
666 1 0.816341 0.0596141 0.619432
551 1 0.199487 0.11784 0.564244
650 1 0.304986 0.0626854 0.620588
685 1 0.381407 0.122607 0.624345
532 1 0.501924 0.0652042 0.563055
563 1 0.568624 0.123959 0.571923
536 1 0.62804 0.0635807 0.572441
571 1 0.813011 0.1238 0.565971
673 1 0.00797237 0.125595 0.620905
552 1 0.117409 0.187338 0.562847
677 1 0.124336 0.127118 0.623461
555 1 0.309562 0.125115 0.565535
560 1 0.371581 0.18724 0.569156
686 1 0.444564 0.186745 0.620318
567 1 0.687164 0.128265 0.571592
576 1 0.871804 0.182081 0.570257
579 1 0.0607167 0.248854 0.565997
678 1 0.191709 0.191708 0.621461
556 1 0.252591 0.197013 0.569114
564 1 0.512269 0.189223 0.566625
568 1 0.626732 0.192493 0.569682
599 1 0.689368 0.248127 0.564406
702 1 0.938201 0.191205 0.621807
709 1 0.133289 0.252117 0.623987
583 1 0.193053 0.25203 0.563772
587 1 0.319277 0.252561 0.565793
717 1 0.378204 0.259001 0.624852
595 1 0.563096 0.257041 0.571879
725 1 0.627713 0.258255 0.623812
729 1 0.74995 0.256666 0.624022
733 1 0.869854 0.253694 0.620224
734 1 0.936232 0.302724 0.61614
705 1 0.998419 0.254907 0.623664
580 1 0.00506435 0.31521 0.569644
706 1 0.0662954 0.317902 0.622157
741 1 0.128346 0.373208 0.622841
710 1 0.18627 0.313441 0.620757
592 1 0.368362 0.318016 0.562906
753 1 0.503598 0.371427 0.617612
726 1 0.69451 0.32115 0.620212
604 1 0.75406 0.31298 0.564179
761 1 0.751203 0.373388 0.624117
635 1 0.812305 0.369438 0.566354
765 1 0.880254 0.368611 0.621289
639 1 0.94034 0.370033 0.566293
737 1 0.00762333 0.3795 0.624158
612 1 0.00100796 0.436725 0.564968
616 1 0.126602 0.43685 0.565611
620 1 0.250925 0.433182 0.567439
624 1 0.378517 0.433709 0.567898
750 1 0.447826 0.434382 0.623374
757 1 0.61487 0.378601 0.622269
758 1 0.677749 0.431652 0.618988
640 1 0.883714 0.435887 0.567871
1673 1 0.250864 0.498892 0.622198
1685 1 0.620438 0.491425 0.620781
1563 1 0.82072 0.49003 0.566703
1567 1 0.937603 0.498695 0.565153
642 1 0.0677871 0.0618454 0.627482
652 1 0.246504 0.0623865 0.682895
649 1 0.249904 0.000285315 0.62551
651 1 0.312111 0.00119888 0.682175
655 1 0.436557 0.000796668 0.685696
660 1 0.502842 0.0582361 0.682479
658 1 0.569415 0.0533869 0.629181
664 1 0.631579 0.0602095 0.684796
663 1 0.693869 0.00173699 0.681274
669 1 0.881374 8.76376e-05 0.626837
672 1 0.880757 0.0624661 0.683863
644 1 0.00452262 0.064728 0.684576
675 1 0.0640449 0.124821 0.683394
656 1 0.373383 0.0672067 0.682926
687 1 0.440134 0.121705 0.681561
689 1 0.504699 0.118358 0.627642
693 1 0.623607 0.124974 0.633159
699 1 0.817571 0.118775 0.687344
701 1 0.885098 0.124424 0.62748
670 1 0.93934 0.0633253 0.625224
674 1 0.0614024 0.186316 0.62645
679 1 0.187106 0.129942 0.687065
681 1 0.251989 0.132522 0.626123
682 1 0.317123 0.18607 0.629113
688 1 0.379747 0.182676 0.681213
692 1 0.497586 0.180932 0.686593
697 1 0.750062 0.125534 0.629583
698 1 0.813474 0.18011 0.62772
703 1 0.945914 0.125566 0.685247
676 1 0.999827 0.18301 0.681702
684 1 0.253491 0.190007 0.68262
715 1 0.317998 0.243831 0.687148
719 1 0.437272 0.24269 0.685785
690 1 0.568853 0.19162 0.628996
694 1 0.693984 0.195305 0.628034
731 1 0.820686 0.244668 0.684104
713 1 0.250171 0.261495 0.625768
720 1 0.378567 0.309102 0.686856
721 1 0.498445 0.261423 0.626073
736 1 0.889049 0.302697 0.682963
708 1 0.000292526 0.312893 0.68371
743 1 0.184068 0.371265 0.682553
716 1 0.249584 0.320124 0.684748
714 1 0.311695 0.318375 0.627213
718 1 0.437664 0.320086 0.625019
724 1 0.496079 0.319851 0.683553
722 1 0.565357 0.312881 0.630206
730 1 0.814042 0.313306 0.625558
740 1 0.0128811 0.436057 0.684157
742 1 0.187688 0.435346 0.628526
745 1 0.246587 0.376153 0.626211
747 1 0.311029 0.386791 0.684633
749 1 0.375901 0.380087 0.631195
760 1 0.614649 0.435058 0.680761
759 1 0.684296 0.381058 0.684442
762 1 0.814391 0.433278 0.626337
766 1 0.943249 0.434727 0.6272
1665 1 0.00828197 0.496508 0.62876
738 1 0.0728157 0.442133 0.626118
746 1 0.321257 0.441645 0.626906
1683 1 0.563736 0.499981 0.684469
754 1 0.554844 0.440789 0.627184
1687 1 0.67847 0.498674 0.685465
764 1 0.750844 0.442609 0.684703
1691 1 0.821145 0.490026 0.687339
1693 1 0.882358 0.489668 0.631922
648 1 0.127868 0.0578002 0.696488
781 1 0.367673 0.00234942 0.748047
782 1 0.430336 0.0619452 0.743779
789 1 0.628288 0.0053318 0.749738
790 1 0.691843 0.0611451 0.741628
668 1 0.750739 0.0612444 0.689649
798 1 0.934209 0.0619252 0.748193
671 1 0.950023 0.00389315 0.691282
770 1 0.0615839 0.0659142 0.746255
774 1 0.190976 0.0685637 0.743386
778 1 0.310196 0.0645649 0.739065
813 1 0.370476 0.12488 0.739643
817 1 0.493532 0.11724 0.746919
691 1 0.560665 0.120799 0.692448
825 1 0.754002 0.122432 0.743859
794 1 0.814126 0.0628079 0.749111
680 1 0.121656 0.182989 0.694833
809 1 0.246773 0.12644 0.748837
683 1 0.311107 0.126963 0.688106
810 1 0.31118 0.186454 0.747386
814 1 0.438533 0.177491 0.742497
818 1 0.573216 0.185797 0.749643
695 1 0.687388 0.130014 0.691758
700 1 0.749687 0.186496 0.687953
704 1 0.878002 0.180837 0.689105
707 1 0.061575 0.249371 0.687526
845 1 0.381863 0.239048 0.746902
849 1 0.498084 0.249005 0.744462
696 1 0.630274 0.192426 0.690773
727 1 0.692858 0.249745 0.690931
822 1 0.685387 0.187506 0.749945
826 1 0.817662 0.189612 0.745613
735 1 0.938538 0.239014 0.692511
833 1 0.99834 0.24261 0.749456
712 1 0.123276 0.310887 0.690379
711 1 0.185793 0.257024 0.690388
841 1 0.248926 0.250312 0.744575
723 1 0.57382 0.255318 0.690576
854 1 0.694592 0.311895 0.749507
862 1 0.946013 0.30659 0.747387
865 1 0.00280472 0.374902 0.746583
739 1 0.0635756 0.370446 0.689698
838 1 0.188521 0.316649 0.747707
842 1 0.311911 0.312922 0.741945
877 1 0.371416 0.370395 0.747548
755 1 0.558802 0.374557 0.700344
728 1 0.630246 0.319047 0.697798
732 1 0.748244 0.31698 0.688717
763 1 0.822698 0.365908 0.688766
767 1 0.943395 0.37351 0.690768
866 1 0.0662355 0.434043 0.747999
869 1 0.128378 0.380039 0.746157
873 1 0.24805 0.376806 0.741529
751 1 0.429922 0.379352 0.690077
756 1 0.494644 0.436294 0.694795
885 1 0.631902 0.386795 0.748594
889 1 0.749866 0.376078 0.746002
890 1 0.815357 0.435743 0.747866
768 1 0.87839 0.428863 0.689671
744 1 0.136407 0.442649 0.688904
748 1 0.246491 0.447385 0.696453
752 1 0.372648 0.446445 0.693934
1813 1 0.620282 0.494132 0.749544
886 1 0.694951 0.437949 0.747385
1821 1 0.879241 0.495663 0.748105
1695 1 0.945078 0.494232 0.691074
769 1 0.00620616 0.000898805 0.753577
777 1 0.255977 0.00319382 0.752662
779 1 0.312882 0.0103384 0.809957
786 1 0.557468 0.0534706 0.752709
791 1 0.688932 0.00149063 0.811103
796 1 0.74898 0.0624993 0.803053
797 1 0.879768 0.00166275 0.753048
800 1 0.873643 0.0616853 0.811642
805 1 0.126865 0.118 0.753234
780 1 0.251005 0.0653522 0.805676
811 1 0.320632 0.114742 0.80479
815 1 0.442343 0.114632 0.81201
819 1 0.562681 0.114016 0.811685
821 1 0.623035 0.108308 0.751828
829 1 0.873646 0.121156 0.754746
801 1 0.991216 0.118379 0.754889
802 1 0.0575441 0.175106 0.751932
806 1 0.185968 0.183571 0.751338
816 1 0.380117 0.176883 0.809279
820 1 0.499296 0.179709 0.811783
824 1 0.630101 0.186104 0.810239
823 1 0.694135 0.125117 0.812306
827 1 0.809562 0.135495 0.807062
830 1 0.931398 0.179315 0.753005
835 1 0.0616823 0.246164 0.805148
843 1 0.307013 0.249449 0.80866
847 1 0.437679 0.247529 0.802204
828 1 0.745175 0.191473 0.811892
859 1 0.816114 0.247874 0.811106
863 1 0.940399 0.241936 0.81062
837 1 0.12828 0.254348 0.753742
844 1 0.249002 0.311744 0.807347
848 1 0.367625 0.311716 0.810204
846 1 0.431439 0.311509 0.751272
851 1 0.555743 0.250884 0.809143
853 1 0.624518 0.250702 0.753308
855 1 0.688895 0.250686 0.808936
857 1 0.759012 0.253217 0.752724
861 1 0.878574 0.250349 0.752538
864 1 0.882803 0.306335 0.807552
836 1 0.999997 0.30609 0.811706
834 1 0.068332 0.318989 0.759213
871 1 0.187667 0.372052 0.808689
881 1 0.49176 0.372913 0.752757
850 1 0.563176 0.31363 0.752585
883 1 0.566926 0.373811 0.806302
856 1 0.629004 0.318522 0.808706
858 1 0.813257 0.31271 0.756413
868 1 0.00407979 0.437463 0.809206
884 1 0.49927 0.434958 0.808442
893 1 0.881108 0.378834 0.759398
894 1 0.944371 0.434203 0.754408
1793 1 0.00163334 0.491759 0.752025
872 1 0.129711 0.44087 0.811468
870 1 0.188305 0.444138 0.753829
876 1 0.250126 0.438131 0.809188
874 1 0.319556 0.437516 0.757092
878 1 0.433003 0.44033 0.759151
882 1 0.560621 0.43819 0.752987
892 1 0.750042 0.441961 0.807194
1819 1 0.814771 0.496559 0.810555
772 1 0.00508791 0.0614724 0.816315
898 1 0.0662895 0.059109 0.87437
901 1 0.126087 0.00358755 0.872423
776 1 0.12723 0.0611653 0.812791
775 1 0.187131 0.00396915 0.81325
905 1 0.250163 0.0065707 0.867418
784 1 0.379025 0.0595104 0.813319
788 1 0.499565 0.0478992 0.822792
914 1 0.564287 0.0575454 0.873996
792 1 0.626472 0.0566727 0.817632
921 1 0.749802 0.0115513 0.867784
926 1 0.935062 0.0584594 0.874424
799 1 0.945402 0.000601839 0.814239
803 1 0.0666735 0.12236 0.815412
933 1 0.127915 0.120363 0.870826
937 1 0.26062 0.11991 0.874462
906 1 0.319614 0.0649251 0.873983
945 1 0.503419 0.117234 0.872851
949 1 0.622598 0.124205 0.869953
953 1 0.748409 0.124863 0.871453
922 1 0.813067 0.0664966 0.866577
831 1 0.934335 0.117225 0.812954
930 1 0.0636524 0.186284 0.868318
808 1 0.125017 0.182904 0.81563
807 1 0.192973 0.128901 0.815068
812 1 0.256285 0.18196 0.823482
946 1 0.564742 0.180643 0.859089
954 1 0.813996 0.185235 0.871677
804 1 0.99834 0.184707 0.821909
839 1 0.183704 0.24572 0.812949
950 1 0.685285 0.193622 0.874659
985 1 0.751555 0.245071 0.871949
832 1 0.875082 0.187886 0.812695
989 1 0.881265 0.249088 0.872818
961 1 0.99879 0.246167 0.873809
962 1 0.0648296 0.306465 0.870009
969 1 0.253458 0.250351 0.870443
970 1 0.306253 0.312448 0.864234
977 1 0.497311 0.252706 0.871934
981 1 0.630719 0.259117 0.864763
860 1 0.749516 0.311866 0.814528
990 1 0.940222 0.307921 0.869661
993 1 0.00269653 0.371148 0.870359
840 1 0.128132 0.315911 0.816547
852 1 0.504268 0.316589 0.819816
1013 1 0.624682 0.37324 0.873529
982 1 0.694316 0.313634 0.872145
986 1 0.80944 0.315114 0.874121
1021 1 0.885848 0.372538 0.869805
895 1 0.944766 0.372262 0.814933
867 1 0.0669683 0.382943 0.815763
1001 1 0.248621 0.380636 0.874051
875 1 0.306247 0.380011 0.816002
1002 1 0.311487 0.43652 0.874113
1005 1 0.369563 0.382466 0.871225
879 1 0.434194 0.383113 0.817718
1010 1 0.561627 0.433349 0.871215
887 1 0.692436 0.376342 0.820165
1017 1 0.753778 0.379509 0.869261
891 1 0.814745 0.377069 0.812821
1018 1 0.812692 0.434869 0.874052