ITEM: TIMESTEP
100000
ITEM: NUMBER OF ATOMS
2048
ITEM: BOX BOUNDS pp pp pp
0.0000000000000000e+00 1.1118543374427825e+01
0.0000000000000000e+00 1.1118543374427825e+01
0.0000000000000000e+00 1.1118543374427825e+01
ITEM: ATOMS id type xs ys zs
25 1 0.756613 -0.00175808 0.00319843
1 1 0.00184275 0.00155456 -0.00166804
2 1 0.0594717 0.0623758 0.999771
6 1 0.187174 0.0606732 0.996549
18 1 0.562224 0.0677409 0.999087
26 1 0.813271 0.0637825 0.000588891
49 1 0.497723 0.12425 0.994143
63 1 0.935243 0.124862 0.0619761
34 1 0.0586862 0.183373 0.00375583
40 1 0.12551 0.189555 0.0649155
50 1 0.559899 0.188147 0.000733541
54 1 0.685419 0.187313 -0.000102184
58 1 0.814219 0.185456 0.00558914
69 1 0.119897 0.251697 0.0015737
73 1 0.2452 0.254655 0.994369
77 1 0.374672 0.250376 0.996617
81 1 0.499256 0.248931 -0.00175345
93 1 0.875082 0.248233 0.998078
65 1 0.000133819 0.249762 0.000774769
66 1 0.0597405 0.311478 0.00364334
70 1 0.18462 0.317182 1.00106
86 1 0.68953 0.310341 -0.00123401
90 1 0.811913 0.311703 1.00027
94 1 0.938012 0.312799 0.999247
101 1 0.121431 0.37533 0.000590161
105 1 0.250968 0.379651 -0.000572729
109 1 0.372341 0.374551 0.998859
113 1 0.501211 0.374869 -0.000907721
121 1 0.746396 0.373907 1.00151
97 1 0.000950581 0.373283 0.999918
98 1 0.0638806 0.437408 0.998944
102 1 0.188886 0.438136 0.0018823
110 1 0.435751 0.433998 0.000308991
114 1 0.563927 0.431805 0.00262045
118 1 0.686992 0.438689 0.996579
122 1 0.814554 0.443967 0.998796
128 1 0.874535 0.447432 0.0618573
133 1 0.128999 0.502772 0.0013774
137 1 0.248777 0.499049 0.00354623
141 1 0.37851 0.496285 0.997785
145 1 0.5015 0.498916 0.00459759
149 1 0.624299 0.497159 -0.000856985
153 1 0.747821 0.503151 0.0011026
129 1 1.00013 0.505716 0.00118464
134 1 0.188597 0.563367 -0.000611063
152 1 0.616347 0.560058 0.0618004
158 1 0.93737 0.568654 0.000135133
161 1 0.00261642 0.627535 1.00214
165 1 0.127418 0.623611 0.0042953
177 1 0.502755 0.626251 0.000790044
189 1 0.872909 0.626059 0.998193
162 1 0.0678469 0.686224 0.00539073
170 1 0.316319 0.689643 -0.000930893
174 1 0.436874 0.683566 1.00144
178 1 0.566821 0.688148 0.999717
188 1 0.74949 0.687878 0.0628933
186 1 0.811801 0.6846 0.99771
190 1 0.942846 0.687909 1.00156
195 1 0.0615791 0.749109 0.0663463
197 1 0.12602 0.746624 0.00100276
205 1 0.378454 0.747939 1.00112
209 1 0.505557 0.74999 -0.00378365
213 1 0.625244 0.748763 0.998838
219 1 0.81104 0.750749 0.061095
221 1 0.872651 0.750471 -0.00149539
194 1 0.0626699 0.808872 0.00216268
206 1 0.439319 0.813312 -0.00115854
210 1 0.566187 0.810474 0.0028231
222 1 0.938507 0.809515 0.996523
225 1 1.0015 0.871367 0.00117311
229 1 0.126015 0.875787 0.00525653
241 1 0.50669 0.87377 0.000718588
249 1 0.755311 0.880364 0.996075
226 1 0.0657215 0.936812 0.998856
232 1 0.126302 0.938041 0.0654191
230 1 0.187481 0.938613 1.00062
238 1 0.434772 0.93958 0.00236653
242 1 0.564907 0.938648 1.00022
246 1 0.688421 0.940735 0.00576016
250 1 0.815797 0.941048 0.996986
254 1 0.941371 0.93773 1.0002
5 1 0.128165 0.995711 0.0011858
17 1 0.496689 0.00155491 0.00461401
7 1 0.193646 0.998969 0.0628643
11 1 0.311416 0.00404802 0.0658774
15 1 0.437414 1.00127 0.0667451
19 1 0.56887 0.996987 0.0614057
24 1 0.627104 0.0590442 0.0580333
23 1 0.69218 0.000683982 0.0610733
31 1 0.93982 0.000378848 0.061638
8 1 0.125702 0.0598821 0.0548013
12 1 0.247098 0.0619537 0.0643871
16 1 0.377232 0.0628091 0.0645415
20 1 0.498242 0.0648813 0.0619549
28 1 0.749988 0.0628832 0.0615963
32 1 0.87896 0.0619552 0.066398
4 1 0.000421183 0.0642479 0.0628017
35 1 0.061472 0.122681 0.0617812
39 1 0.188508 0.123867 0.0612343
43 1 0.310342 0.125784 0.0602163
47 1 0.434977 0.125316 0.0598261
51 1 0.562633 0.126152 0.0599812
55 1 0.686649 0.123403 0.0612728
59 1 0.812484 0.120863 0.0675953
44 1 0.247801 0.188764 0.0509026
48 1 0.374274 0.187601 0.0591195
52 1 0.496944 0.186034 0.0590429
56 1 0.621539 0.185392 0.0611494
60 1 0.749949 0.181769 0.067209
64 1 0.87372 0.185455 0.0662921
36 1 0.999285 0.18176 0.0613676
67 1 0.0582966 0.249971 0.0683117
71 1 0.185332 0.25285 0.0576719
75 1 0.311526 0.248679 0.0586751
79 1 0.440999 0.252461 0.0641451
83 1 0.55817 0.247688 0.0626845
87 1 0.688007 0.248525 0.063155
91 1 0.816049 0.248118 0.0623561
95 1 0.936255 0.249017 0.0623112
72 1 0.122155 0.314836 0.0636992
76 1 0.253097 0.309917 0.0616488
80 1 0.372309 0.310638 0.0617276
84 1 0.500294 0.311965 0.0613602
88 1 0.627265 0.309931 0.0617141
92 1 0.750946 0.312337 0.0626062
96 1 0.87825 0.311788 0.0611236
68 1 0.995169 0.311095 0.0652862
99 1 0.0588105 0.377464 0.0601351
103 1 0.184434 0.376293 0.0646249
107 1 0.312287 0.377322 0.0576347
111 1 0.432261 0.374058 0.060113
115 1 0.565758 0.373221 0.0598444
119 1 0.690363 0.374294 0.0664364
123 1 0.812378 0.377889 0.0585852
127 1 0.934158 0.377608 0.058118
104 1 0.123259 0.440147 0.0586489
108 1 0.252118 0.436797 0.0652323
112 1 0.372937 0.437192 0.0619371
116 1 0.501989 0.430001 0.0615889
120 1 0.626544 0.434315 0.0609999
124 1 0.749009 0.441679 0.0608
100 1 0.997987 0.437742 0.059469
131 1 0.0615965 0.501005 0.0618517
135 1 0.187572 0.502628 0.062966
139 1 0.313186 0.500099 0.0611054
143 1 0.437822 0.495964 0.0644107
147 1 0.563386 0.493984 0.0628881
151 1 0.687035 0.499377 0.0582506
155 1 0.814862 0.508304 0.0616361
159 1 0.935154 0.50359 0.0649163
132 1 1.00359 0.561545 0.0608809
136 1 0.123075 0.563676 0.0664626
140 1 0.246791 0.56159 0.0605854
144 1 0.373417 0.560566 0.0615013
148 1 0.502633 0.561786 0.0624887
156 1 0.746507 0.56106 0.0602137
160 1 0.874595 0.565969 0.0635906
163 1 0.0634821 0.624075 0.0637867
167 1 0.187612 0.6271 0.0664364
171 1 0.312491 0.624406 0.0628731
175 1 0.438542 0.624146 0.0652968
179 1 0.564185 0.625825 0.0605791
183 1 0.687469 0.628426 0.064699
187 1 0.811712 0.625548 0.0649229
191 1 0.939232 0.62816 0.0638795
164 1 0.00256572 0.687341 0.0637988
168 1 0.127554 0.687569 0.0689636
172 1 0.251685 0.688243 0.0646732
176 1 0.37635 0.68548 0.0630046
180 1 0.502548 0.688898 0.0576481
184 1 0.627508 0.686143 0.0687051
192 1 0.880161 0.687982 0.0609579
199 1 0.190161 0.748174 0.0636613
203 1 0.313668 0.748069 0.0671586
207 1 0.436992 0.752464 0.0627638
211 1 0.564909 0.748049 0.062697
215 1 0.689246 0.749619 0.0648845
223 1 0.940835 0.749597 0.0595019
200 1 0.121738 0.80897 0.0662081
204 1 0.250786 0.810532 0.061245
208 1 0.373701 0.812335 0.0606483
212 1 0.498473 0.812017 0.0604964
216 1 0.623856 0.809731 0.067335
220 1 0.750673 0.814728 0.0637101
224 1 0.876895 0.815096 0.0630545
196 1 0.0016736 0.813861 0.063992
227 1 0.0634615 0.876606 0.0604889
231 1 0.186728 0.871737 0.0636163
235 1 0.314817 0.874871 0.0628107
239 1 0.438841 0.871087 0.060673
243 1 0.563029 0.871733 0.0641923
247 1 0.690963 0.877098 0.0624807
251 1 0.815217 0.876718 0.0618999
255 1 0.941542 0.87316 0.064197
228 1 0.00627518 0.940616 0.0604487
236 1 0.250592 0.937104 0.06571
240 1 0.371765 0.940883 0.0613465
244 1 0.501821 0.941335 0.0619459
248 1 0.627144 0.934143 0.0639551
252 1 0.751404 0.936434 0.0631777
256 1 0.877925 0.940381 0.0628037
3 1 0.0658499 0.998044 0.0640498
27 1 0.816977 0.00218776 0.0614005
261 1 0.127506 0.00390344 0.124256
269 1 0.374872 1.00374 0.124651
281 1 0.751467 0.00615086 0.125201
285 1 0.874673 1.00115 0.125992
286 1 0.941331 0.0591786 0.127174
258 1 0.0644751 0.0595005 0.124152
262 1 0.186269 0.0678911 0.12602
266 1 0.312983 0.0646755 0.124654
270 1 0.437698 0.0633923 0.125006
274 1 0.56632 0.0600648 0.122966
278 1 0.689603 0.0620838 0.123526
282 1 0.81674 0.0635165 0.128433
293 1 0.123954 0.12475 0.129007
297 1 0.251285 0.126515 0.12595
301 1 0.369901 0.125546 0.121557
305 1 0.505916 0.122242 0.124714
309 1 0.628068 0.127728 0.126312
313 1 0.755604 0.124294 0.131279
317 1 0.87728 0.123226 0.125513
289 1 0.998665 0.123764 0.126941
290 1 0.0614551 0.187408 0.122815
294 1 0.187331 0.186908 0.126158
298 1 0.312187 0.189053 0.122719
302 1 0.432018 0.186072 0.122801
306 1 0.564131 0.187935 0.12631
310 1 0.686899 0.186267 0.129344
314 1 0.81043 0.189066 0.130519
318 1 0.938938 0.185917 0.127576
325 1 0.121213 0.249843 0.126459
329 1 0.250945 0.249154 0.118901
333 1 0.378086 0.249554 0.124519
337 1 0.501069 0.247839 0.122408
341 1 0.623326 0.248078 0.126534
345 1 0.754199 0.252546 0.125373
349 1 0.87381 0.24633 0.126219
321 1 0.998013 0.251298 0.127342
322 1 0.0579454 0.31531 0.12552
326 1 0.187362 0.30817 0.123721
330 1 0.311244 0.310588 0.125682
334 1 0.438216 0.314463 0.127015
338 1 0.565354 0.312051 0.126467
342 1 0.686513 0.313055 0.124373
346 1 0.813934 0.314873 0.126509
350 1 0.936188 0.309395 0.127159
357 1 0.12281 0.381542 0.126497
361 1 0.251125 0.373556 0.122587
365 1 0.374472 0.369511 0.121496
369 1 0.497376 0.374234 0.122836
373 1 0.627278 0.376021 0.124911
377 1 0.752931 0.37601 0.123544
381 1 0.876408 0.376923 0.121708
353 1 0.998726 0.37744 0.120947
354 1 0.0581973 0.436056 0.124513
358 1 0.185289 0.438179 0.126072
362 1 0.314653 0.434159 0.123715
366 1 0.435506 0.431057 0.124366
370 1 0.564892 0.4356 0.123161
374 1 0.688227 0.43789 0.122505
378 1 0.814293 0.44408 0.120653
382 1 0.938725 0.438516 0.124291
385 1 0.998377 0.502197 0.124404
389 1 0.119601 0.497614 0.125669
393 1 0.247627 0.499163 0.124849
397 1 0.375616 0.495643 0.123977
401 1 0.501234 0.497148 0.123188
405 1 0.623346 0.497074 0.125181
409 1 0.752185 0.500619 0.122302
413 1 0.874645 0.506481 0.126913
386 1 0.0582493 0.556383 0.124504
390 1 0.183992 0.566595 0.126904
394 1 0.31283 0.559388 0.125286
398 1 0.443591 0.56091 0.123355
402 1 0.560726 0.560776 0.124441
406 1 0.687836 0.555512 0.121966
410 1 0.811481 0.56668 0.123907
414 1 0.938326 0.564146 0.127375
417 1 -0.00122013 0.62458 0.123286
421 1 0.123018 0.625333 0.125576
425 1 0.247467 0.622164 0.12632
429 1 0.376756 0.623837 0.124594
433 1 0.502263 0.630527 0.127655
437 1 0.617128 0.621854 0.126743
441 1 0.749838 0.622583 0.12541
445 1 0.877782 0.630567 0.126181
418 1 0.0600586 0.685994 0.12317
422 1 0.191773 0.68881 0.12701
426 1 0.312501 0.687213 0.125324
430 1 0.43973 0.686924 0.124237
434 1 0.56035 0.688349 0.129269
438 1 0.688849 0.684099 0.126575
442 1 0.814463 0.69358 0.122517
446 1 0.943301 0.688686 0.128804
453 1 0.121557 0.746806 0.128326
457 1 0.251741 0.751816 0.127461
461 1 0.377347 0.751101 0.126191
465 1 0.500371 0.747119 0.123239
469 1 0.625163 0.750593 0.132031
473 1 0.750345 0.748951 0.121519
477 1 0.876513 0.750372 0.118744
449 1 0.0024497 0.751141 0.12743
450 1 0.0622659 0.813697 0.125496
454 1 0.186965 0.809352 0.122801
458 1 0.311819 0.814539 0.118454
462 1 0.441436 0.811204 0.123798
466 1 0.566273 0.814211 0.13206
470 1 0.693525 0.81077 0.12324
474 1 0.80977 0.809285 0.123673
478 1 0.935026 0.811254 0.123797
485 1 0.121968 0.873401 0.125469
489 1 0.252002 0.871138 0.122238
493 1 0.379402 0.871966 0.121628
497 1 0.498372 0.876332 0.120861
501 1 0.626975 0.878347 0.126651
505 1 0.750084 0.876548 0.126191
509 1 0.873209 0.875981 0.124618
481 1 0.000436174 0.879572 0.124863
482 1 0.0661567 0.937976 0.124988
486 1 0.188616 0.941545 0.127818
490 1 0.315125 0.937902 0.124776
494 1 0.437568 0.93534 0.123156
498 1 0.566063 0.938534 0.124837
502 1 0.690081 0.941934 0.127943
506 1 0.815468 0.938137 0.124735
510 1 0.934974 0.94001 0.128398
257 1 0.00395802 0.998766 0.124106
265 1 0.251229 0.999228 0.125374
273 1 0.504078 0.00214765 0.125685
277 1 0.62719 0.00220368 0.127234
259 1 0.063554 0.00189657 0.188723
263 1 0.186493 0.00200743 0.187283
267 1 0.315181 0.00389482 0.187166
276 1 0.504843 0.0640875 0.187216
275 1 0.564187 0.000912623 0.189633
260 1 -0.000272621 0.0597881 0.185927
264 1 0.125235 0.0646286 0.188214
268 1 0.252306 0.0674698 0.187564
272 1 0.376701 0.0657887 0.188786
280 1 0.630432 0.0653836 0.190539
284 1 0.752733 0.0630416 0.193188
288 1 0.875627 0.0608324 0.188353
291 1 0.0608386 0.123102 0.187723
295 1 0.188281 0.12644 0.187639
299 1 0.309756 0.127677 0.187095
303 1 0.442899 0.125133 0.182364
307 1 0.567258 0.120577 0.185411
311 1 0.69263 0.125511 0.191701
315 1 0.815244 0.123058 0.191297
319 1 0.936541 0.12148 0.187177
296 1 0.120886 0.188937 0.18517
300 1 0.253684 0.193074 0.183454
304 1 0.369883 0.18575 0.187253
308 1 0.501866 0.187794 0.187059
312 1 0.622905 0.184693 0.187777
316 1 0.747298 0.195596 0.185483
320 1 0.8783 0.185571 0.188996
292 1 0.00208264 0.187695 0.187023
323 1 0.059541 0.251155 0.188175
327 1 0.19024 0.251771 0.186104
331 1 0.313861 0.249475 0.184675
335 1 0.439656 0.245414 0.185104
339 1 0.561067 0.248078 0.188421
343 1 0.682608 0.249654 0.185221
347 1 0.814503 0.253792 0.190267
351 1 0.936252 0.25067 0.189576
324 1 0.996841 0.311865 0.189585
328 1 0.123511 0.318111 0.188162
332 1 0.250557 0.315973 0.187411
336 1 0.37561 0.307965 0.187855
340 1 0.504432 0.310722 0.185281
344 1 0.626265 0.310474 0.185402
348 1 0.74679 0.310944 0.190735
352 1 0.875232 0.312444 0.189341
355 1 0.0577693 0.375697 0.184389
359 1 0.186428 0.377497 0.18658
363 1 0.317572 0.371518 0.187809
367 1 0.434977 0.374297 0.185166
371 1 0.562945 0.373896 0.184568
375 1 0.69385 0.377765 0.185324
379 1 0.815385 0.377171 0.183462
383 1 0.937248 0.375035 0.186649
360 1 0.120725 0.4376 0.188912
364 1 0.24954 0.435633 0.187014
368 1 0.374293 0.433685 0.185991
372 1 0.499255 0.434501 0.183027
376 1 0.625113 0.435416 0.182894
380 1 0.752661 0.443058 0.187163
384 1 0.874541 0.437289 0.180238
356 1 0.996954 0.437411 0.188448
387 1 0.0575562 0.49833 0.190034
391 1 0.184749 0.499773 0.188231
395 1 0.311733 0.493004 0.185362
399 1 0.43658 0.49846 0.184562
403 1 0.562681 0.495244 0.186361
407 1 0.685739 0.497374 0.182055
411 1 0.813649 0.507378 0.187377
415 1 0.934254 0.501005 0.187993
392 1 0.120731 0.560718 0.186743
396 1 0.246378 0.559726 0.186645
400 1 0.381141 0.557056 0.181982
404 1 0.500931 0.557483 0.186333
408 1 0.62407 0.557223 0.186039
412 1 0.744719 0.561315 0.186727
416 1 0.878231 0.568756 0.1892
388 1 0.9976 0.561335 0.187987
419 1 0.0603372 0.621458 0.186093
423 1 0.190693 0.623246 0.189178
427 1 0.312847 0.623297 0.185712
431 1 0.439029 0.625431 0.19038
435 1 0.562821 0.622146 0.188989
439 1 0.683448 0.621869 0.187625
443 1 0.813788 0.624111 0.187341
447 1 0.937573 0.62729 0.190001
420 1 0.00382683 0.688813 0.189926
424 1 0.125705 0.686421 0.187364
428 1 0.252073 0.684937 0.188243
432 1 0.374669 0.687995 0.18935
436 1 0.500174 0.689223 0.189817
440 1 0.624894 0.684671 0.18644
444 1 0.753765 0.686958 0.183957
448 1 0.878899 0.693049 0.187441
451 1 0.0636271 0.75063 0.188493
455 1 0.188893 0.749604 0.18475
459 1 0.313255 0.752401 0.184747
463 1 0.438023 0.752969 0.186681
467 1 0.55954 0.753732 0.193605
471 1 0.684394 0.748841 0.192782
475 1 0.812633 0.749397 0.186329
479 1 0.945145 0.751157 0.188798
456 1 0.122672 0.80897 0.190556
460 1 0.251836 0.814786 0.184926
464 1 0.37073 0.809427 0.187409
468 1 0.498847 0.813166 0.185833
472 1 0.627551 0.811252 0.191123
476 1 0.750305 0.810281 0.191185
480 1 0.880933 0.80773 0.187716
452 1 0.00020385 0.815071 0.185955
483 1 0.0634663 0.873091 0.186516
487 1 0.184679 0.869914 0.180851
491 1 0.316617 0.873887 0.185118
495 1 0.435874 0.869332 0.186082
499 1 0.56181 0.871567 0.187943
503 1 0.691039 0.872815 0.187702
507 1 0.812665 0.873688 0.184208
511 1 0.936793 0.879727 0.186317
492 1 0.249548 0.932504 0.185508
496 1 0.375642 0.937889 0.186856
500 1 0.505694 0.9398 0.186696
504 1 0.626911 0.937067 0.18941
508 1 0.751407 0.941381 0.190598
512 1 0.871462 0.936783 0.189563
484 1 0.000368277 0.939335 0.186355
488 1 0.125493 0.936889 0.184332
271 1 0.440613 0.000763022 0.183903
279 1 0.687091 -0.000390157 0.193648
283 1 0.813407 0.00112105 0.187955
287 1 0.936897 0.998808 0.189394
517 1 0.129878 0.999662 0.244611
521 1 0.249605 0.00485668 0.249932
525 1 0.374167 0.00039472 0.247652
530 1 0.56096 0.0636084 0.247362
533 1 0.626204 0.998805 0.252604
541 1 0.875632 0.00195027 0.251782
514 1 0.0604856 0.0662084 0.252193
518 1 0.186009 0.0666754 0.249125
522 1 0.31249 0.065387 0.252144
526 1 0.43868 0.06513 0.248386
534 1 0.689068 0.0625069 0.252918
538 1 0.815107 0.0605726 0.256416
542 1 0.937131 0.0625 0.250192
549 1 0.12284 0.129504 0.24917
553 1 0.249312 0.126488 0.251805
557 1 0.376381 0.125002 0.249039
561 1 0.497554 0.121129 0.246962
565 1 0.622201 0.123631 0.250856
569 1 0.752191 0.125014 0.253268
573 1 0.873836 0.121075 0.253883
545 1 0.99668 0.125094 0.246747
546 1 0.0649029 0.190923 0.250436
550 1 0.183625 0.191131 0.247111
554 1 0.310817 0.188162 0.250445
558 1 0.434503 0.182779 0.250452
562 1 0.562554 0.184984 0.246634
566 1 0.687002 0.188934 0.250717
570 1 0.809497 0.187906 0.252649
574 1 0.938487 0.188025 0.252286
581 1 0.124127 0.254266 0.250799
585 1 0.251252 0.249259 0.245711
589 1 0.37527 0.247005 0.248355
593 1 0.502339 0.250121 0.247991
597 1 0.622723 0.250031 0.252032
601 1 0.750804 0.251291 0.251635
605 1 0.876221 0.253039 0.251126
577 1 0.00171207 0.248189 0.250148
578 1 0.0616371 0.314548 0.248115
582 1 0.187415 0.313674 0.248594
586 1 0.316478 0.309307 0.246505
590 1 0.438748 0.30786 0.247872
594 1 0.566057 0.3121 0.25282
598 1 0.687488 0.313056 0.25127
602 1 0.815394 0.318004 0.251811
606 1 0.9375 0.316685 0.250597
613 1 0.123969 0.375211 0.25549
617 1 0.249038 0.372686 0.251379
621 1 0.375753 0.371201 0.249452
625 1 0.503936 0.371007 0.249023
629 1 0.622061 0.372367 0.244566
633 1 0.750263 0.374545 0.247176
637 1 0.877234 0.381008 0.248608
609 1 0.99964 0.379595 0.252205
610 1 0.0593444 0.439043 0.255176
614 1 0.184382 0.436224 0.250238
618 1 0.311324 0.431102 0.249745
622 1 0.437746 0.4323 0.2514
626 1 0.561955 0.434554 0.245852
630 1 0.686366 0.436327 0.249904
634 1 0.814213 0.441125 0.245032
638 1 0.938109 0.440838 0.251342
641 1 1.00058 0.500652 0.254366
645 1 0.121242 0.502 0.248948
649 1 0.248093 0.499831 0.249161
653 1 0.377112 0.500093 0.245959
657 1 0.50036 0.498474 0.245334
661 1 0.626551 0.500353 0.248835
665 1 0.74874 0.50318 0.247354
669 1 0.874128 0.501321 0.248234
642 1 0.0588663 0.566627 0.251923
646 1 0.184647 0.560383 0.24781
650 1 0.317075 0.557797 0.243616
654 1 0.437831 0.557168 0.24802
658 1 0.563835 0.561435 0.247611
662 1 0.684461 0.564124 0.249225
666 1 0.811662 0.559395 0.250726
670 1 0.938012 0.562105 0.250106
673 1 0.00139277 0.627681 0.247326
677 1 0.12226 0.624282 0.247136
681 1 0.253444 0.615116 0.250242
685 1 0.376091 0.621676 0.24687
689 1 0.501457 0.62202 0.250171
693 1 0.626211 0.623495 0.250096
697 1 0.750213 0.623652 0.24682
701 1 0.87106 0.623494 0.251592
674 1 0.0681629 0.690496 0.253036
678 1 0.1925 0.688378 0.247569
682 1 0.308252 0.682206 0.253476
686 1 0.438632 0.686282 0.250919
690 1 0.561121 0.686418 0.249059
694 1 0.68937 0.686578 0.246305
698 1 0.818569 0.687876 0.245787
702 1 0.938721 0.68621 0.252187
705 1 0.00716511 0.751898 0.249259
709 1 0.125277 0.750768 0.252512
713 1 0.251078 0.751088 0.24852
717 1 0.377682 0.749883 0.249556
721 1 0.498649 0.752996 0.252032
725 1 0.624201 0.747027 0.253823
729 1 0.755998 0.748744 0.247506
733 1 0.874022 0.749634 0.250029
706 1 0.0651093 0.81333 0.252607
710 1 0.188137 0.809662 0.247919
714 1 0.311307 0.817379 0.250643
718 1 0.43361 0.812145 0.249662
722 1 0.56228 0.814581 0.257435
726 1 0.688984 0.813038 0.2526
730 1 0.817596 0.811014 0.249049
734 1 0.941089 0.813101 0.247361
737 1 0.998871 0.877664 0.248221
741 1 0.127341 0.877631 0.247016
745 1 0.249196 0.87264 0.24635
749 1 0.374297 0.880674 0.251058
753 1 0.498205 0.878348 0.247309
757 1 0.624075 0.872183 0.250426
761 1 0.748234 0.875307 0.249595
765 1 0.873184 0.872792 0.245464
738 1 0.0619043 0.936726 0.252712
742 1 0.187635 0.933243 0.247111
750 1 0.438238 0.936678 0.243424
758 1 0.687365 0.9372 0.249242
762 1 0.811114 0.937323 0.250807
766 1 0.932246 0.937547 0.249046
746 1 0.310479 0.938059 0.249111
529 1 0.500563 -0.000545104 0.250084
754 1 0.563471 0.935897 0.249787
537 1 0.752974 1.00126 0.250299
513 1 0.0021304 -0.00310624 0.250624
515 1 0.0616593 1.00218 0.308336
519 1 0.187786 0.00258844 0.3088
531 1 0.559853 0.00126867 0.307327
535 1 0.688446 0.997874 0.313107
539 1 0.81484 0.999193 0.314158
543 1 0.938302 0.00199712 0.312975
520 1 0.125465 0.0656307 0.31214
524 1 0.25204 0.0670797 0.309306
528 1 0.37373 0.062925 0.311755
532 1 0.497881 0.0605383 0.31086
536 1 0.626962 0.0616587 0.312707
540 1 0.748785 0.0587172 0.314952
544 1 0.876217 0.0637729 0.313685
516 1 0.997745 0.0635627 0.311919
547 1 0.0624535 0.12969 0.313769
551 1 0.184414 0.129753 0.310175
555 1 0.317311 0.124281 0.312497
559 1 0.438672 0.128984 0.310852
563 1 0.556056 0.124891 0.307986
567 1 0.690193 0.125243 0.313255
571 1 0.814948 0.125719 0.314133
575 1 0.938967 0.127109 0.311782
552 1 0.127076 0.193859 0.31143
556 1 0.249128 0.188907 0.313276
560 1 0.372418 0.187537 0.312434
564 1 0.499336 0.188773 0.307512
568 1 0.626721 0.1846 0.309273
572 1 0.751012 0.186178 0.313591
576 1 0.872553 0.190037 0.311912
548 1 0.00137368 0.186222 0.311405
579 1 0.0611435 0.25016 0.311893
583 1 0.188591 0.256067 0.310816
587 1 0.314033 0.248142 0.310768
591 1 0.437506 0.251402 0.312797
595 1 0.566187 0.246047 0.315878
599 1 0.688847 0.250704 0.313505
603 1 0.811191 0.252143 0.31189
607 1 0.938269 0.247063 0.313466
580 1 0.996699 0.311136 0.309323
584 1 0.127449 0.30759 0.316187
588 1 0.252513 0.306881 0.312643
592 1 0.375131 0.31044 0.315182
596 1 0.497508 0.311222 0.312158
600 1 0.625105 0.311812 0.314531
604 1 0.750566 0.318106 0.311689
608 1 0.877063 0.311562 0.312958
611 1 0.0597802 0.375426 0.315266
615 1 0.18988 0.373836 0.316471
619 1 0.308437 0.368343 0.312356
623 1 0.436582 0.372698 0.312915
627 1 0.561429 0.379116 0.314775
631 1 0.685587 0.374775 0.311995
635 1 0.811003 0.382909 0.308734
639 1 0.93598 0.374797 0.3139
612 1 -0.00312598 0.440917 0.316682
616 1 0.125016 0.436919 0.311842
620 1 0.247949 0.436155 0.311606
624 1 0.371433 0.428681 0.310673
628 1 0.498216 0.436573 0.312384
632 1 0.62143 0.438084 0.309389
636 1 0.745678 0.441331 0.309688
640 1 0.873064 0.439034 0.311855
643 1 0.0678542 0.502739 0.315306
647 1 0.184483 0.499896 0.314672
651 1 0.31134 0.499317 0.308054
655 1 0.435368 0.497274 0.309876
659 1 0.558418 0.498068 0.306999
663 1 0.685832 0.498496 0.310838
667 1 0.810854 0.501312 0.31032
671 1 0.930472 0.50163 0.31798
644 1 0.00196478 0.564481 0.310074
648 1 0.125676 0.56365 0.310701
652 1 0.247429 0.561378 0.312854
656 1 0.374951 0.558849 0.309954
660 1 0.496903 0.558681 0.313577
664 1 0.620794 0.558831 0.30964
668 1 0.750619 0.561151 0.310046
672 1 0.876546 0.563986 0.311993
675 1 0.0614262 0.625189 0.309582
679 1 0.185404 0.625254 0.309965
683 1 0.310769 0.617104 0.313056
687 1 0.436998 0.619158 0.307818
691 1 0.563086 0.620284 0.310858
695 1 0.687639 0.624002 0.310267
699 1 0.813951 0.621939 0.308629
703 1 0.936598 0.62192 0.309866
676 1 0.000286115 0.68717 0.314494
680 1 0.125206 0.683945 0.31742
684 1 0.246051 0.688134 0.313208
688 1 0.374058 0.683348 0.309409
692 1 0.496168 0.684211 0.310796
696 1 0.626733 0.684574 0.314151
700 1 0.754107 0.681746 0.310353
704 1 0.875061 0.685498 0.311974
707 1 0.0666481 0.754502 0.315311
711 1 0.185993 0.747548 0.312974
715 1 0.311165 0.744102 0.311015
719 1 0.438633 0.74772 0.311104
723 1 0.560887 0.750567 0.314357
727 1 0.684014 0.753005 0.316992
731 1 0.814055 0.753743 0.315892
735 1 0.938346 0.749502 0.308676
708 1 0.00254214 0.814121 0.309993
712 1 0.128271 0.811623 0.311308
716 1 0.251526 0.814185 0.314291
720 1 0.378583 0.819283 0.315158
724 1 0.49473 0.812826 0.315517
728 1 0.625327 0.813714 0.315081
732 1 0.747507 0.811868 0.313629
736 1 0.879393 0.807828 0.309043
739 1 0.0709201 0.873363 0.313608
743 1 0.18887 0.871652 0.307211
747 1 0.309799 0.879874 0.311783
751 1 0.437192 0.880017 0.313253
755 1 0.563081 0.875862 0.312473
759 1 0.683917 0.875625 0.314507
763 1 0.812824 0.870681 0.316608
767 1 0.93553 0.874271 0.313487
748 1 0.245752 0.940693 0.310478
752 1 0.372703 0.938021 0.313543
760 1 0.626138 0.93742 0.310259
764 1 0.747803 0.937008 0.310163
740 1 0.998773 0.939049 0.313299
744 1 0.129666 0.938861 0.310597
523 1 0.307859 0.00229045 0.309715
527 1 0.434444 0.996274 0.306768
756 1 0.501237 0.944035 0.311629
768 1 0.876752 0.940894 0.31589
773 1 0.123443 0.0040379 0.372202
777 1 0.251509 1.00085 0.374215
781 1 0.371615 -0.00452462 0.374418
785 1 0.499422 -0.000167761 0.376505
797 1 0.875841 0.00119704 0.377174
769 1 0.00292939 1.00078 0.372582
770 1 0.0640921 0.0698063 0.374625
774 1 0.187676 0.059869 0.369945
778 1 0.309722 0.0630039 0.373832
782 1 0.433598 0.0565861 0.369943
786 1 0.56274 0.0657375 0.368452
790 1 0.68885 0.0616025 0.372175
794 1 0.813569 0.0595118 0.375598
798 1 0.940806 0.0613518 0.375509
801 1 -0.000708483 0.127935 0.37519
805 1 0.130348 0.128929 0.37796
809 1 0.246621 0.126531 0.372932
813 1 0.377916 0.125481 0.377204
817 1 0.498792 0.126454 0.371487
821 1 0.627297 0.124635 0.371576
825 1 0.750918 0.121763 0.376177
829 1 0.874229 0.12554 0.376608
802 1 0.0604737 0.186837 0.377743
806 1 0.184328 0.192978 0.374318
810 1 0.313549 0.183322 0.37638
814 1 0.436622 0.192491 0.37302
818 1 0.564684 0.18633 0.375379
822 1 0.692112 0.1873 0.374504
826 1 0.815356 0.18914 0.377962
830 1 0.936615 0.182587 0.37521
833 1 0.997759 0.249417 0.373282
837 1 0.124239 0.249406 0.375316
841 1 0.250061 0.249307 0.375579
845 1 0.371112 0.24782 0.378837
849 1 0.501463 0.252369 0.375924
853 1 0.632498 0.247741 0.372392
857 1 0.753077 0.252586 0.373852
861 1 0.875275 0.246101 0.377596
834 1 0.0583883 0.313919 0.375659
838 1 0.18646 0.311338 0.379705
842 1 0.313616 0.312854 0.376675
846 1 0.439141 0.313591 0.379445
850 1 0.563583 0.309579 0.378674
854 1 0.686676 0.312811 0.373337
858 1 0.810119 0.315434 0.379009
862 1 0.938687 0.311818 0.374606
869 1 0.126544 0.371789 0.379956
873 1 0.246338 0.375129 0.378086
877 1 0.373707 0.375545 0.376425
881 1 0.497544 0.37433 0.371541
885 1 0.625248 0.372531 0.376762
889 1 0.746444 0.376271 0.374598
893 1 0.873226 0.372775 0.37346
865 1 1.00016 0.376606 0.374029
866 1 0.0671491 0.435258 0.378485
870 1 0.188056 0.436968 0.378609
874 1 0.30979 0.434987 0.370781
878 1 0.433449 0.435598 0.376656
882 1 0.561339 0.436897 0.37434
886 1 0.685767 0.438152 0.373925
890 1 0.81047 0.43634 0.374805
894 1 0.932138 0.438579 0.377934
901 1 0.127157 0.499206 0.377599
905 1 0.252615 0.499683 0.3717
909 1 0.371842 0.497407 0.371711
913 1 0.499467 0.497128 0.373284
917 1 0.622427 0.49935 0.374551
921 1 0.743518 0.500397 0.376934
925 1 0.872869 0.504132 0.375752
897 1 -0.000153688 0.503772 0.374192
898 1 0.0615723 0.565808 0.376882
902 1 0.191471 0.557136 0.378844
906 1 0.311961 0.560501 0.376183
910 1 0.43616 0.557627 0.373041
914 1 0.562161 0.560522 0.372679
918 1 0.6804 0.559703 0.370501
922 1 0.808896 0.56365 0.373435
926 1 0.939024 0.566647 0.373304
933 1 0.123357 0.623228 0.375226
937 1 0.250728 0.617142 0.371736
941 1 0.374905 0.621069 0.374131
945 1 0.49586 0.622302 0.370946
949 1 0.615657 0.624494 0.37346
953 1 0.744031 0.621795 0.371514
957 1 0.876277 0.627127 0.374164
929 1 0.998206 0.623843 0.375494
930 1 0.0602125 0.691615 0.37045
934 1 0.185897 0.68312 0.375251
938 1 0.312133 0.678798 0.367867
942 1 0.433512 0.685702 0.373293
946 1 0.556289 0.688217 0.374002
950 1 0.689492 0.688094 0.375168
954 1 0.813782 0.685743 0.372852
958 1 0.93843 0.689873 0.371013
961 1 0.999119 0.753765 0.371188
965 1 0.12903 0.749622 0.377496
969 1 0.246069 0.749872 0.37156
973 1 0.373335 0.743669 0.368268
977 1 0.498221 0.747616 0.377968
981 1 0.623247 0.74707 0.377131
985 1 0.749007 0.75184 0.376733
989 1 0.877502 0.751402 0.372836
962 1 0.0665868 0.812255 0.375463
966 1 0.188092 0.814248 0.375325
970 1 0.315751 0.813072 0.37081
974 1 0.439286 0.813413 0.374549
978 1 0.565688 0.817241 0.374662
982 1 0.683081 0.811449 0.379837
986 1 0.814045 0.811673 0.380936
990 1 0.939052 0.813015 0.371685
993 1 0.998979 0.880683 0.379005
997 1 0.129243 0.875711 0.376657
1001 1 0.245834 0.879823 0.373418
1005 1 0.372243 0.878617 0.376106
1009 1 0.499173 0.876577 0.370107
1013 1 0.627027 0.878765 0.375172
1017 1 0.747705 0.875372 0.373652
1021 1 0.875903 0.874518 0.376382
994 1 0.0635449 0.936938 0.371983
998 1 0.186587 0.941024 0.375817
1002 1 0.311093 0.93857 0.374187
1006 1 0.438019 0.940884 0.377089
1014 1 0.694693 0.937273 0.377238
1018 1 0.816572 0.934515 0.376907
1022 1 0.936767 0.939583 0.377035
1010 1 0.559448 0.940156 0.376856
789 1 0.623842 1.00115 0.370563
793 1 0.752274 -0.00329967 0.376366
771 1 0.0639446 0.00429656 0.436895
775 1 0.182822 0.00576207 0.439319
799 1 0.942754 1.00002 0.442785
772 1 0.00166726 0.0624486 0.432202
776 1 0.121295 0.0682698 0.439721
780 1 0.249202 0.0605419 0.433287
784 1 0.376965 0.0591882 0.436813
788 1 0.498826 0.0654393 0.432614
792 1 0.629336 0.060413 0.439045
796 1 0.750643 0.0636644 0.439401
800 1 0.874493 0.0636908 0.43934
803 1 0.0581243 0.128341 0.43985
807 1 0.190972 0.126557 0.440247
811 1 0.312044 0.123065 0.440036
815 1 0.434753 0.125095 0.436246
819 1 0.566832 0.126549 0.435627
823 1 0.690094 0.123275 0.433008
827 1 0.810497 0.124468 0.436453
831 1 0.937561 0.123351 0.438199
808 1 0.124472 0.186126 0.437454
812 1 0.251081 0.18773 0.435207
816 1 0.371908 0.186695 0.439199
820 1 0.498606 0.18844 0.434352
824 1 0.630877 0.186303 0.433338
828 1 0.747071 0.192193 0.436367
832 1 0.869359 0.191998 0.440566
804 1 0.997545 0.190533 0.438835
835 1 0.0593257 0.247472 0.439816
839 1 0.18943 0.249253 0.438409
843 1 0.311209 0.248695 0.43868
847 1 0.436546 0.251768 0.438732
851 1 0.564297 0.249487 0.436814
855 1 0.685905 0.251217 0.43945
859 1 0.811018 0.250272 0.438159
863 1 0.938753 0.249171 0.435463
836 1 0.998252 0.311748 0.442078
840 1 0.123253 0.309352 0.442744
844 1 0.249612 0.309538 0.440299
848 1 0.370934 0.312436 0.435094
852 1 0.497885 0.319661 0.442738
856 1 0.623772 0.314693 0.440887
860 1 0.749728 0.312169 0.436963
864 1 0.872043 0.311056 0.438514
867 1 0.0606183 0.372715 0.435673
871 1 0.187018 0.369148 0.442183
875 1 0.307556 0.378772 0.441062
879 1 0.431175 0.378209 0.439844
883 1 0.562512 0.37676 0.434917
887 1 0.687851 0.379672 0.436296
891 1 0.812913 0.375124 0.436535
895 1 0.934556 0.37418 0.435996
872 1 0.126033 0.430019 0.439363
876 1 0.246459 0.440557 0.436445
880 1 0.374568 0.440197 0.439799