ITEM: TIMESTEP
100000
ITEM: NUMBER OF ATOMS
2048
ITEM: BOX BOUNDS pp pp pp
0.0000000000000000e+00 1.3153131063095840e+01
0.0000000000000000e+00 1.3153131063095840e+01
0.0000000000000000e+00 1.3153131063095840e+01
ITEM: ATOMS id type xs ys zs
1387 1 0.442424 0.632855 0.00723572
1996 1 0.474816 0.688012 0.274052
250 1 0.0851891 0.775512 0.326601
237 1 0.0283302 0.629482 0.341797
1355 1 0.48839 0.923026 0.0490241
1469 1 0.491369 0.293011 0.476229
1310 1 0.0687743 0.129519 0.0931337
1109 1 0.0303873 0.239349 0.312974
1720 1 0.451213 0.985564 0.0852697
1670 1 0.482732 0.626404 0.211883
1791 1 0.072081 0.410376 0.486889
1157 1 0.261018 0.433446 0.0588267
124 1 0.293202 0.0253343 0.303786
1451 1 0.355642 0.668311 0.450054
1117 1 0.0336014 0.642933 0.257173
469 1 0.389839 0.789139 0.269298
637 1 0.162832 0.276515 0.000609687
711 1 0.253989 0.812329 0.372267
1146 1 0.271171 0.251399 0.195464
1833 1 0.351971 0.0649041 0.438057
1388 1 0.321101 0.959775 0.310702
522 1 0.0688728 0.221391 0.11876
1831 1 0.377738 0.409361 0.195128
1376 1 0.291133 0.242959 0.0479895
1120 1 0.177698 0.230802 0.376841
2010 1 0.481186 0.357051 0.0897187
356 1 0.0998917 0.668087 0.280182
887 1 0.372818 0.648666 0.187621
720 1 0.267237 0.565286 0.193337
278 1 0.00863626 0.6712 0.11798
383 1 0.0527437 0.336944 0.35758
433 1 0.479082 0.490202 0.109313
399 1 0.00973712 0.968617 0.2755
343 1 0.354696 0.56826 0.45599
1712 1 0.0959762 0.490464 0.111114
1456 1 0.146658 0.449802 0.0816325
1175 1 0.373897 0.871303 0.411906
230 1 0.336667 0.601934 0.258532
235 1 0.160756 0.594592 0.0396501
1616 1 0.415623 0.832338 0.127744
666 1 0.432355 0.948957 0.215085
1068 1 0.261096 0.687122 0.0191995
1197 1 0.44424 0.552108 0.0560692
27 1 0.472831 0.574177 0.462141
933 1 0.444325 0.059549 0.105863
498 1 0.0300766 0.781073 0.206793
84 1 0.492618 0.804136 0.437453
634 1 0.316051 0.627446 0.119245
516 1 0.0349313 0.480338 0.010075
556 1 0.0876034 0.81238 0.113962
1993 1 0.312609 0.764101 0.355022
1383 1 0.265314 0.859026 0.0746856
1248 1 0.418003 0.597357 0.148663
1148 1 0.324863 0.119373 0.488847
1640 1 0.427465 0.708231 0.494492
765 1 0.0684172 0.214422 0.250402
704 1 0.316491 0.363115 0.0772404
58 1 0.446889 0.199047 0.0459695
488 1 0.323863 0.390649 0.420088
1545 1 0.0751678 0.543275 0.0171718
1738 1 0.0450147 0.883774 0.443292
1753 1 0.252843 0.248405 0.120722
1390 1 0.468063 0.796331 0.357544
2015 1 0.0460183 0.297518 0.445359
1172 1 0.331969 0.100459 0.178344
172 1 0.43617 0.0640093 0.382655
1873 1 0.37271 0.0776787 0.258799
346 1 0.343861 0.210813 0.158187
54 1 0.0688031 0.419206 0.0353792
135 1 0.00551834 0.458107 0.281004
1024 1 0.143548 0.211047 0.458163
60 1 0.0170665 0.620119 0.180313
1520 1 0.244732 0.99171 0.344561
1012 1 0.400386 0.431478 0.27845
787 1 0.370691 0.392215 0.335648
1333 1 0.195456 0.676283 0.478446
1429 1 0.326897 0.277624 0.150236
1303 1 0.498455 0.508328 0.472838
901 1 0.366817 0.163899 0.0416624
920 1 0.405333 0.174463 0.257387
259 1 0.227021 0.499051 0.0472995
824 1 0.0191842 0.366879 0.00880272
1792 1 0.0803218 0.190777 0.389735
1233 1 0.186098 0.578988 0.185238
531 1 0.1319 0.14898 0.426402
379 1 0.387387 0.750874 0.384465
1769 1 0.400095 0.371399 0.0710365
729 1 0.272912 0.935244 0.442679
97 1 0.0146993 0.944831 0.354951
1221 1 0.413841 0.94333 0.36701
21 1 0.326708 0.623472 0.331834
1697 1 0.215272 0.507281 0.203606
544 1 0.215307 0.978319 0.463701
496 1 0.479181 0.79401 0.149643
650 1 0.0449197 0.620696 0.0686662
155 1 0.0257321 0.1843 0.0558975
999 1 0.489426 0.944369 0.170335
695 1 0.268289 0.496223 0.433257
743 1 0.365225 0.127638 0.119116
1428 1 0.239391 0.747561 0.481058
1728 1 0.0278253 0.789759 0.0663759
1173 1 0.439641 0.005385 0.158884
13 1 0.342924 0.485746 0.454606
1947 1 0.154928 0.932375 0.240246
182 1 0.383959 0.946558 0.150112
769 1 0.442886 0.909869 0.468363
485 1 0.0792798 0.97357 0.21338
1726 1 0.387565 0.844254 0.483161
1973 1 0.355546 0.0529057 0.106399
950 1 0.102114 0.238938 0.018383
1453 1 0.442483 0.634311 0.485928
74 1 0.393714 0.432727 0.404477
685 1 0.480541 0.843077 0.0609835
370 1 0.0318589 0.465783 0.137052
780 1 0.131606 0.29053 0.0856258
949 1 0.243468 0.129341 0.148501
12 1 0.292761 0.164089 0.198684
543 1 0.0243292 0.00207907 0.4932
1596 1 0.352587 0.298105 0.0412646
347 1 0.439477 0.824403 0.208851
1107 1 0.385786 0.0262697 0.0207655
675 1 0.460151 0.713428 0.387908
423 1 0.182902 0.45175 0.240929
309 1 0.452725 0.51853 0.189679
941 1 0.459479 0.149632 0.317786
1678 1 0.215367 0.480335 0.137119
2022 1 0.486086 0.574822 0.273416
1258 1 0.0816811 0.177234 0.313185
1544 1 0.102645 0.611416 0.204691
348 1 0.338009 0.411155 0.0261514
1455 1 0.428218 0.248985 0.267801
257 1 0.351924 0.483728 0.291459
1633 1 0.0906433 0.94215 0.311629
618 1 0.362492 0.978644 0.253672
1692 1 0.449228 0.429953 0.087666
492 1 0.377676 0.493578 0.143262
1994 1 0.294267 0.464255 0.122383
15 1 0.481802 0.463887 0.274433
1907 1 0.473872 0.330823 0.246476
1204 1 0.260939 0.915316 0.0223812
572 1 0.156133 0.873926 0.284942
820 1 0.160209 0.677252 0.123233
745 1 0.402609 0.586404 0.405341
1391 1 0.111316 0.771623 0.180336
773 1 0.383358 0.661286 0.114779
1832 1 0.140606 0.755345 -0.00169598
1661 1 0.44682 0.687257 0.184173
396 1 0.376463 0.170479 0.333051
1344 1 0.400849 0.881947 0.183663
1207 1 0.284517 0.57053 0.48412
1129 1 0.304543 0.0246812 0.0575769
699 1 0.267622 0.928584 0.0983302
1022 1 0.0554691 0.803171 0.465899
1711 1 0.431872 0.023101 0.258535
1652 1 0.240835 0.0858992 0.0261469
1858 1 0.111767 0.922327 0.064425
1111 1 0.295982 0.0089009 0.447507
39 1 0.277517 0.0194429 0.149522
1158 1 0.0391161 0.28341 0.0722119
1579 1 0.232706 0.99275 0.0605615
2004 1 0.158843 0.95936 0.421466
1731 1 0.0582972 0.328613 0.16167
1610 1 0.0339692 0.891487 0.0997445
657 1 0.25007 0.944362 0.170175
66 1 0.360914 0.09202 0.0337129
1682 1 0.249416 0.302678 0.0295524
1007 1 0.26529 0.348391 0.142459
93 1 0.184995 0.896752 0.166936
735 1 0.438099 0.360177 0.183075
1602 1 0.187734 0.329288 0.173234
392 1 0.303143 0.718139 0.438625
1985 1 0.166517 0.529036 0.00685751
1339 1 0.295282 0.319382 0.206606
1785 1 0.252934 0.116234 0.492703
1266 1 0.474574 0.00688443 0.365976
393 1 0.11375 0.232814 0.340057
1153 1 0.233562 0.278016 0.402323
442 1 0.157719 0.36376 0.0390724
1401 1 0.0555218 0.504697 0.309614
725 1 0.274154 0.2707 0.267694
1135 1 0.363579 0.41936 0.118907
665 1 0.219485 0.0862381 0.336595
1446 1 0.371234 0.567782 0.313088
1901 1 0.0399083 0.748774 0.140754
2005 1 0.166169 0.521749 0.0915774
227 1 0.14157 0.500402 0.166093
781 1 0.311163 0.541537 0.0744689
434 1 0.307624 0.268869 0.349403
1962 1 0.0179043 0.486835 0.49422
2039 1 0.334334 0.321771 0.396026
1941 1 0.0955824 0.0823738 0.342392
1715 1 0.374325 0.590165 0.0862921
1065 1 0.445064 0.440085 0.190252
839 1 0.405813 0.14107 0.488634
681 1 0.244162 0.555982 0.112578
1449 1 0.392327 0.992174 0.420475
349 1 0.0796383 0.851657 0.171911
1285 1 0.123213 0.0447851 0.00600029
654 1 0.349561 0.881831 0.0982927
981 1 0.103386 0.744931 0.259763
1386 1 0.437182 0.71807 0.117038
1543 1 0.436934 0.876126 0.337779
844 1 0.470033 0.904536 0.401979
1133 1 0.173577 0.758861 0.139668
656 1 0.328242 0.868112 0.0217983
1751 1 0.156117 0.995877 0.0488289
875 1 0.070934 0.133919 0.0135313
910 1 0.0864591 0.888891 0.25168
109 1 0.4958 0.306573 0.321345
1997 1 0.225498 0.0998455 0.261623
1032 1 0.195928 0.81685 0.471506
829 1 0.0486394 0.822707 0.392036
846 1 0.201917 0.837639 0.110727
300 1 0.278997 0.903362 0.265485
2016 1 0.38574 0.895292 0.292887
263 1 0.180462 0.182082 0.137537
1896 1 0.278406 0.822376 0.466408
1081 1 0.364203 0.0142551 0.178522
1667 1 0.390165 0.016096 0.494971
1210 1 0.300699 0.103515 0.245401
602 1 0.19483 0.891843 0.0502827
1038 1 0.273222 0.0799071 0.101628
117 1 0.20703 0.145148 0.0715597
736 1 0.130076 0.168007 0.0774427
861 1 0.338665 0.0955845 0.322917
956 1 0.44642 0.221879 0.451148
459 1 0.355955 0.647207 0.0109387
98 1 0.152463 0.590339 0.425891
1721 1 0.357944 0.351034 0.139241
1056 1 0.124372 0.372882 0.203289
810 1 0.212647 0.283481 0.228455
420 1 0.0900034 0.371901 0.270377
1964 1 0.144513 0.423951 0.48932
473 1 0.269435 0.402956 0.192566
1736 1 0.357109 0.224801 0.229379
1364 1 0.187276 0.695863 0.0579803
1776 1 0.126897 0.341374 0.33204
1244 1 0.212973 0.398515 0.101244
1892 1 0.0873362 0.281753 0.290361
1267 1 0.163107 0.431837 0.313027
447 1 0.323041 0.460825 0.198353
1627 1 0.333477 0.797612 0.428076
1408 1 0.26562 0.394825 0.474915
366 1 0.314382 0.529812 0.237972
683 1 0.0346842 0.716189 0.0653834
191 1 0.171718 0.647535 0.188319
143 1 0.0596397 0.0201126 0.308807
935 1 0.479465 0.562434 0.123035
380 1 0.423804 0.0843584 0.31275
1549 1 0.197525 0.532548 0.27093
123 1 0.0646096 0.156545 0.175337
1490 1 0.0879347 0.678332 0.103784
1476 1 0.24676 0.6537 0.0789413
1384 1 0.271626 0.120589 0.420762
462 1 0.414081 0.355108 0.280459
285 1 0.247729 0.203775 0.435584
1703 1 0.0392423 0.117879 0.28647
1599 1 0.0970181 0.986406 0.100497
23 1 0.1892 0.768049 0.41825
1548 1 0.259887 0.86732 0.173818
571 1 0.250131 0.843656 0.00190851
1256 1 0.0483133 0.492421 0.234781
560 1 0.0803472 0.919566 0.388299
1351 1 0.209451 0.0393738 0.132902
1143 1 0.363747 0.338991 0.476812
756 1 0.127879 0.827559 0.43017
1727 1 0.0563873 0.0582286 0.158906
1259 1 0.237013 0.0357012 0.204199
1199 1 0.474353 0.154265 0.196062
798 1 0.429751 0.175345 0.383508
1287 1 0.176979 0.225763 0.0576072
68 1 0.237032 0.157506 0.311995
646 1 0.112142 0.0540172 0.0959431
1074 1 0.132892 0.00754707 0.317896
1862 1 0.325632 0.397199 0.2408
1924 1 0.36467 0.749385 0.125292
417 1 0.446396 0.222406 0.190065
1796 1 0.160897 0.285153 0.294005
535 1 0.0236845 0.293605 0.220661
827 1 0.254336 0.214176 0.358465
1167 1 0.449887 0.5514 0.337214
1323 1 0.276833 0.405051 0.307889
490 1 0.406912 0.293592 0.346802
1273 1 0.105257 0.445795 0.26279
1398 1 0.0904686 0.438941 0.178275
648 1 0.385326 0.114452 0.396113
1434 1 0.433752 0.287829 0.413256
1201 1 0.0355488 0.561686 0.243874
1760 1 0.303906 0.467902 0.348363
268 1 0.325186 0.322783 0.297441
1255 1 0.438387 0.137157 0.123626
1957 1 0.421922 0.519106 0.272641
1646 1 0.0280357 0.0712548 0.378896
1413 1 0.0527238 0.6667 0.00529118
1681 1 0.180778 0.604654 0.111851
454 1 0.292097 0.672107 0.223636
436 1 0.182689 0.080227 0.4363
297 1 0.344595 0.559897 0.17399
1869 1 0.426652 0.286599 0.0832727
878 1 0.0150604 0.410432 0.356728
131 1 0.171268 0.688362 0.265812
163 1 0.246523 0.581142 0.357978
1881 1 0.115568 0.525824 0.239251
1919 1 0.106863 0.579523 0.0998273
1540 1 0.230256 0.720166 0.172054
406 1 0.122898 0.741772 0.0751808
776 1 0.12162 0.670707 0.0396912
328 1 0.320351 0.697452 0.157187
2030 1 0.288775 0.806929 0.206272
622 1 0.483183 0.14917 0.490803
452 1 0.120741 0.721639 0.37648
645 1 0.0750391 0.988747 0.0237369
47 1 0.357994 0.685573 0.258924
1325 1 0.326194 0.893638 0.170224
1297 1 0.148406 0.993309 0.165343
811 1 0.151489 0.910246 0.361941
976 1 0.343148 0.846658 0.261903
1526 1 0.197768 0.890099 0.443069
10 1 0.196789 0.0280054 0.28086
1444 1 0.144176 0.158712 0.350996
688 1 0.491885 0.261304 0.139817
468 1 0.22182 0.933833 0.384183
1817 1 0.223105 0.179435 0.214519
312 1 0.168654 0.152032 0.283746
398 1 0.410704 0.952103 0.0119628
202 1 0.219652 0.224127 0.28952
1151 1 0.0852055 -0.00146485 0.382503
1762 1 0.301601 0.176683 0.277041
1138 1 0.272515 0.772116 0.00551868
679 1 0.0492261 0.259728 0.379797
85 1 0.12312 0.356261 0.13197
1161 1 0.0946817 0.920507 0.144191
1781 1 0.146546 0.150038 0.20932
26 1 0.0111791 0.986289 0.42217
783 1 0.488974 0.775483 0.0473051
269 1 0.0232165 0.921418 0.195783
663 1 0.162558 0.251475 0.154729
1663 1 0.143683 0.288003 0.478444
2042 1 0.192862 0.366705 0.365265
794 1 0.202483 0.311526 0.0947457
1868 1 0.216488 0.474971 0.339561
1378 1 0.25607 0.354132 0.405233
1036 1 0.0877542 0.404761 0.338889
1571 1 0.114226 0.469274 0.351579
1437 1 0.0794908 0.609273 0.425814
1218 1 0.172732 0.610086 0.29805
1923 1 0.00214482 0.503678 0.0800331
1574 1 0.254875 0.469957 0.262864
1464 1 0.277415 0.529345 0.302137
1906 1 0.409667 0.486664 0.339958
1397 1 0.0933311 0.594919 0.278019
226 1 0.237303 0.637343 0.160678
1269 1 0.364151 0.815308 0.191102
762 1 0.213312 0.673803 0.322661
1786 1 0.2418 0.306153 0.331646
1283 1 0.0764982 0.817531 0.253263
1638 1 0.304536 0.535059 0.374863
104 1 0.410011 0.813353 0.0451925
1265 1 0.0915477 0.68131 0.198085
1853 1 0.390944 0.0107282 0.344292
1475 1 0.192858 0.765655 0.240073
2007 1 0.310975 0.824926 0.139388
1756 1 0.357187 0.921828 0.489659
698 1 0.152443 0.802213 0.364203
1274 1 0.467696 0.994294 0.492253
25 1 0.3887 0.728551 0.311236
597 1 0.0431276 0.381293 0.422586
1930 1 0.361325 0.411914 0.488716
801 1 0.220563 0.801341 0.168457
714 1 0.386237 0.212951 0.489206
1188 1 0.274339 0.902385 0.338034
886 1 0.23762 0.030017 0.408783
937 1 0.338954 0.939464 0.381284
1658 1 0.141541 0.0832364 0.279825
1589 1 0.292673 0.781594 0.280187
1492 1 0.466 0.790666 0.276713
632 1 0.0325383 0.224045 0.445191
615 1 0.0414253 0.459804 0.426751
1639 1 0.30826 0.0558873 0.379252
1704 1 0.285115 0.976814 0.24485
834 1 0.0344015 0.0777771 0.0398007
116 1 0.232661 0.354932 0.240071
1982 1 0.181451 0.0672558 0.0685971
128 1 0.301878 0.247812 0.41923
1442 1 0.0712085 0.303321 -0.00361997
907 1 0.217765 0.290857 0.484598
253 1 0.361545 0.251905 0.30239
308 1 0.366533 0.985994 0.0822229
500 1 0.132199 0.519592 0.483503
1349 1 0.118199 0.465528 0.430994
822 1 0.13226 0.356787 0.40375
1995 1 0.0830198 0.723039 0.447844
41 1 0.371966 0.273576 0.441926
164 1 0.470836 0.110737 0.257555
76 1 0.41085 0.644462 0.310466
1789 1 0.394785 0.219758 0.10042
193 1 0.41039 0.3572 0.416921
919 1 0.497655 0.472171 0.349976
364 1 0.442955 0.908731 0.126557
734 1 0.0655924 0.857207 0.0202119
1292 1 0.136289 0.544673 0.312764
1740 1 0.419946 0.520063 0.44723
401 1 0.225032 0.694366 0.413624
103 1 0.18438 0.520793 0.389138
598 1 0.416007 0.609496 0.242084
1246 1 0.233175 0.567639 0.00831688
1359 1 0.197425 0.629417 0.383321
1382 1 0.400082 0.668937 0.384608
120 1 0.173679 0.748247 0.309714
425 1 0.28705 0.174548 0.107912
1525 1 0.0177031 0.890708 0.306027
229 1 0.27725 0.87157 0.411075
17 1 0.192723 0.769792 0.0556316
1405 1 0.283461 0.697075 0.310557
1969 1 0.134834 0.832355 0.0587532
1613 1 0.077186 0.571878 0.349546
1828 1 0.218621 0.953482 0.276104
14 1 0.418083 0.887269 0.0525181
132 1 0.145921 0.0239323 0.464171
1895 1 0.240274 0.709419 0.256294
1467 1 0.226478 0.742018 0.353212
439 1 0.0860536 0.86638 0.32758
1743 1 0.0160955 0.704399 0.22159
1980 1 0.435438 0.106411 0.0463455
1830 1 0.295977 0.140362 0.0448083
1336 1 0.0620336 0.119353 0.432634
914 1 0.0730664 0.407024 0.107226
335 1 0.182023 0.956278 0.110069
774 1 0.0373066 0.222024 0.186042
1450 1 0.47947 0.395854 0.358211
183 1 0.407884 0.075879 0.180524
1903 1 0.0435173 0.698295 0.373621
806 1 0.163549 0.37093 0.268649
200 1 0.449341 0.879778 0.257899
985 1 0.0203274 0.370899 0.242524
1782 1 0.0945282 0.096072 0.214942
1230 1 0.0316711 0.952157 0.0675873
162 1 0.268178 0.375688 0.0130311
1815 1 0.39654 0.817924 0.33603
1396 1 0.316606 0.835144 0.333802
2035 1 0.433652 0.953971 0.289924
902 1 0.459808 0.22623 0.331949
603 1 -0.00252957 0.111582 0.221765
692 1 0.332517 0.691281 0.367277
81 1 0.124217 0.625038 0.34949
1470 1 0.170519 0.0320013 0.380311
1710 1 0.460724 0.456493 0.424407
173 1 0.0104065 0.786546 0.341632
2037 1 0.43038 0.47884 0.0328131
2031 1 0.468447 0.618063 0.387775
2044 1 0.196706 0.476128 0.465722
1145 1 0.387852 0.482726 0.217361
858 1 0.228537 0.581903 0.435592
1855 1 0.148096 0.224978 0.239522
532 1 0.142291 0.748651 0.481126
931 1 0.10139 0.536293 0.411225
523 1 0.277782 0.629878 0.406442
1183 1 0.141249 0.174106 0.00286965
1155 1 0.0810752 0.965476 0.458945
256 1 0.0186315 0.358119 0.0995899
1330 1 0.0381489 0.717028 0.301533
731 1 0.418578 0.808923 0.41899
1078 1 0.00918354 0.564155 0.407737
1186 1 0.199606 0.376957 0.462269
344 1 0.230176 0.610851 0.239726
1585 1 0.253796 0.756725 0.110381
614 1 0.0537835 0.55362 0.467452
763 1 0.121156 0.658956 0.45235
369 1 0.0151931 0.541354 0.17437
722 1 0.220654 0.844483 0.239843
255 1 0.46066 0.117001 0.432928
1857 1 0.333152 0.750303 0.217589
742 1 0.406334 0.756673 0.204327
547 1 0.443841 0.0730845 0.496044
1825 1 0.396629 0.159185 0.185944
291 1 0.308601 0.797926 0.0650117
1634 1 0.363215 0.303597 0.222877
1094 1 0.376443 0.22863 0.378493
912 1 0.0208262 0.756266 0.410264
50 1 0.300317 0.151707 0.353386
2034 1 0.0151525 0.490083 0.363228
1878 1 0.146198 0.822478 0.230111
320 1 0.32574 0.6988 0.0850509
1277 1 0.222146 0.431482 0.399519
1552 1 0.0968745 0.266385 0.200794
548 1 0.185965 0.414582 0.179474
635 1 0.462385 0.63663 0.0791362
1771 1 0.123258 0.280859 0.404503
1228 1 0.0660395 0.0474052 0.441446
1115 1 0.204912 0.155737 0.391907
691 1 0.0848499 0.347688 0.0586537
1435 1 0.427704 0.695314 0.0485529
767 1 0.406751 0.299087 0.152728
71 1 0.189454 0.092734 0.186156
1757 1 0.306844 0.582021 0.0071468
758 1 0.0398966 0.0466303 0.236939
1367 1 0.349778 0.48085 0.0672223
649 1 0.289972 0.646553 0.486724
357 1 0.329751 0.178036 0.445096
1458 1 0.115217 0.896011 0.456239
1404 1 0.478689 0.850503 0.49636
1083 1 0.2123 0.0457742 0.495471
1764 1 0.0169379 0.241852 0.00247253
831 1 0.447426 0.812128 0.758466
1004 1 0.336759 0.761024 0.679188
812 1 0.199068 0.986738 0.664852
316 1 0.00282478 0.298982 0.567934
3 1 0.410692 0.155109 0.720227
517 1 0.0557584 0.636898 0.672511
730 1 0.0424523 0.152386 0.581689
918 1 0.331597 0.698771 0.5104
1402 1 0.295668 0.24622 0.575254
378 1 0.00486871 0.0825859 0.603057
385 1 0.404119 0.696328 0.981191
311 1 0.0101729 0.0759655 0.742165
1532 1 0.0564879 0.168369 0.504155
1493 1 0.48556 0.442144 0.972015
1595 1 0.0100354 0.605492 0.614708
1793 1 0.0209115 0.44716 0.740539
44 1 0.355606 0.281599 0.955291
580 1 0.0594942 0.804261 0.765738
510 1 0.337833 0.524565 0.608397
771 1 0.18791 0.382989 0.615823
784 1 0.0781195 0.411765 0.706603
480 1 0.16573 0.149169 0.918057
1741 1 0.168351 0.548937 0.644462
1926 1 0.455918 0.42058 0.596686
1487 1 0.0831619 0.295628 0.587101
988 1 0.21708 0.304351 0.620554
596 1 0.315673 0.323333 0.575715
1843 1 0.0219834 0.610854 0.497937
30 1 0.107894 0.57497 0.902075
929 1 0.416314 0.684191 0.63442
95 1 0.370527 0.629154 0.509509
680 1 0.195856 0.195615 0.523362
877 1 0.500551 0.33366 0.567803
1770 1 0.429449 0.183893 0.600268
196 1 0.0469368 0.185771 0.874538
270 1 0.119136 0.191574 0.552525
1672 1 0.331652 0.66252 0.587662
1031 1 0.139936 0.964055 0.703918
422 1 0.233792 0.500066 0.870669
1030 1 0.0902126 0.326109 0.511135
1755 1 0.278403 0.886822 0.589433
1454 1 0.0935629 0.889773 0.84966
1419 1 0.227673 0.898799 0.513864
587 1 0.108773 0.497319 0.633651
1559 1 0.070971 0.114871 0.643813
1960 1 0.186063 0.0325577 0.59036
445 1 0.0727605 0.716027 0.523772
83 1 0.306453 0.0416887 0.928959
1063 1 0.435096 0.252379 0.911624
1322 1 0.38974 0.977583 0.751781
1403 1 0.00716648 0.435937 0.850139
570 1 0.100201 0.989912 0.524534
1888 1 0.472711 0.24833 0.809067
429 1 0.425305 0.388624 0.910944
431 1 0.24851 0.458524 0.748058
1438 1 0.11744 0.842224 0.794362
896 1 0.193652 0.748686 0.947186
122 1 0.0495055 0.533132 0.929124
167 1 0.0367951 0.54027 0.583995
871 1 0.0435378 0.333637 0.639071
1824 1 0.174955 0.224126 0.948354
448 1 0.0587969 0.961028 0.620001
395 1 0.139588 0.531068 0.56066
1628 1 0.206063 0.329214 0.969021
360 1 0.169829 0.590997 0.96769
856 1 0.136203 0.495 0.708071
1733 1 0.405996 0.878785 0.555875
1619 1 0.349105 0.369473 0.687892
1816 1 0.149207 0.371647 0.537185
2003 1 0.398879 0.318797 0.588175
245 1 0.490377 0.566283 0.592003
530 1 0.443622 0.0372213 0.865363
964 1 0.417473 0.498345 0.722148
59 1 0.416341 0.374944 0.652611
890 1 0.000773856 0.598699 0.728107
242 1 0.313344 0.470092 0.569281
770 1 0.307692 0.675693 0.656691
1580 1 0.267419 0.496491 0.658264
511 1 0.180215 0.469858 0.637322
88 1 0.447024 0.72066 0.565659
1027 1 0.237144 0.697269 0.642254
127 1 0.424499 0.299138 0.992175
451 1 0.353054 0.528567 0.523984
185 1 0.479371 0.170779 0.825087
568 1 0.247798 0.723304 0.774865
586 1 0.0382305 0.0322587 0.976757
590 1 0.166928 0.60103 0.575531
55 1 0.133038 0.840512 0.507832
1080 1 0.337355 0.996365 0.551293
1735 1 0.0141635 0.917028 0.860129
1243 1 0.170621 0.969361 0.548268
1482 1 0.408659 0.153488 0.978631
1773 1 0.0803813 0.945688 0.897761
753 1 0.0283024 0.183995 0.947923
1950 1 0.285746 0.043056 0.692617
1185 1 0.132184 0.0626206 0.540607
524 1 0.0945102 0.887814 0.739439
1904 1 0.428962 0.966201 0.898635
415 1 0.35926 0.617483 0.705353
31 1 0.0443901 0.667589 0.748558
1718 1 0.169977 0.184371 0.737373
661 1 0.277604 0.973289 0.657226
2002 1 0.325309 0.118701 0.731654
1975 1 0.496829 0.371671 0.640069
330 1 0.28325 0.104108 0.963811
154 1 0.00402163 0.362033 0.718648
209 1 0.0604041 0.361671 0.947452
847 1 0.0515309 0.217332 0.612241
533 1 0.339939 0.0288872 0.7694
1189 1 0.239826 0.611747 0.529106
1615 1 0.0291353 0.685042 0.921259
479 1 0.20335 0.678736 0.840342
293 1 0.410064 0.248406 0.844202
1123 1 0.293163 0.0724125 0.843045
470 1 0.11943 0.062185 0.625031
1462 1 0.0800335 0.311827 0.791311
1910 1 0.202002 0.140703 0.632654
1838 1 0.479411 0.224973 0.978714
2045 1 0.23293 0.6574 0.706371
148 1 0.449288 0.285777 0.635688
1125 1 0.223021 0.203904 0.598065
1013 1 0.35989 0.215263 0.560428
1689 1 0.224964 0.577569 0.891562
435 1 0.153696 0.233499 0.597868
782 1 0.269454 0.296603 0.715262
1241 1 0.357081 0.393234 0.611497
1983 1 0.185949 0.484208 0.761151
792 1 0.408554 0.323598 0.873046
1813 1 0.322097 0.536511 0.686288
932 1 0.372769 0.778159 0.788037
222 1 0.302083 0.571084 0.833902
1251 1 0.0262578 0.563547 0.670797
1271 1 0.253757 0.605985 0.759941
138 1 0.0602753 0.923792 0.96916
1990 1 0.416248 0.537155 0.613286
313 1 0.402474 0.77376 0.603002
251 1 0.345125 0.815507 0.554184
1328 1 0.340465 0.737605 0.592963
1395 1 0.0836866 0.826888 0.692408
1938 1 0.179522 0.748075 0.648268
1091 1 0.417966 0.762798 0.68719
1998 1 0.474947 0.808058 0.835985
1530 1 0.167735 0.0439467 0.725439
1706 1 0.415911 0.890496 0.626756
1511 1 0.143333 0.901933 0.564693
107 1 0.300891 0.839521 0.694235
252 1 0.445067 0.812255 0.554849
874 1 0.4521 0.429621 0.837667
203 1 0.457274 0.89711 0.870755
1800 1 0.483752 0.709133 0.632773
1312 1 0.0640224 0.0302299 0.582934
324 1 0.3834 0.772009 0.502883
1000 1 0.284822 0.395889 0.553052
175 1 0.226491 0.952051 0.822348
978 1 0.421457 0.107471 0.65506
1820 1 0.252995 0.442961 0.968286
2048 1 0.467099 0.0560287 0.760519
1363 1 0.238829 0.0808684 0.570959
1484 1 0.448098 0.404368 0.765974
917 1 0.184021 0.296683 0.817381
1940 1 0.219592 0.0617875 0.656113
1514 1 0.165195 0.228525 0.797553
258 1 0.29478 0.155004 0.588976
1841 1 0.178597 0.206666 0.663557
475 1 0.491616 0.904612 0.632975
1279 1 0.192497 0.408466 0.746831
1913 1 0.202086 0.323295 0.738375
700 1 0.461261 0.0978357 0.829935
458 1 0.267858 0.519086 0.786484
159 1 0.494491 0.432281 0.67926
1734 1 0.478263 0.147231 0.956011
2020 1 0.164861 0.300206 0.549997
616 1 0.248631 0.425167 0.61015
1505 1 0.349244 0.523359 0.760581
53 1 0.3122 0.442405 0.643485
805 1 0.171569 0.439458 0.56441
642 1 0.022174 0.941337 0.764029
441 1 0.100846 0.692025 0.709332
1124 1 0.0946688 0.64326 0.804628
2021 1 0.333844 0.50658 0.852101
962 1 0.205573 0.814402 0.912073
61 1 0.314673 0.699996 0.889892
333 1 0.365163 0.594607 0.625796
1656 1 0.0791281 0.331134 0.705351
1839 1 0.310089 0.592738 0.562844
760 1 0.458381 0.48799 0.788385
1699 1 0.162506 0.107754 0.681854
1859 1 0.250242 0.755802 0.586628
1069 1 0.478327 0.797793 0.628638
1206 1 0.214885 0.91924 0.619458
384 1 0.0965325 0.752789 0.659193
1171 1 0.265693 0.745555 0.694491
1577 1 0.00881105 0.87548 0.793256
599 1 0.470703 0.76562 0.976523
869 1 0.467667 0.361583 0.983168
1788 1 0.101994 0.258468 0.94582
411 1 0.131241 0.165937 0.626118
1810 1 0.0243148 0.804381 0.616376
1308 1 0.135025 0.963942 0.61715
752 1 0.482078 0.307159 0.873506
1035 1 0.0522976 0.862971 0.904675
1039 1 0.0659674 0.90271 0.513489
1705 1 0.113821 0.104935 0.942918
2000 1 0.196059 0.9402 0.910009
323 1 0.349548 0.904374 0.667666
529 1 0.35802 0.938992 0.911333
509 1 0.346136 0.156458 0.64633
1169 1 0.309345 0.0674313 0.546329
643 1 0.115641 0.651951 0.625528
1356 1 0.169776 0.126252 0.566861
63 1 0.48075 0.682861 0.77367
249 1 0.0933291 0.399758 0.58213
267 1 0.111696 0.484522 0.809902
550 1 0.482083 0.35085 0.801715
410 1 0.497416 0.385579 0.879256
1690 1 0.0375918 0.692413 0.820413
1319 1 0.393766 0.422483 0.712794
474 1 0.175506 0.283614 0.678137
301 1 0.37672 0.485279 0.661136
1234 1 0.270751 0.252207 0.649781
1040 1 0.341261 0.244877 0.802544
558 1 0.320876 0.381299 0.773813
1314 1 0.156839 0.562078 0.748678
405 1 0.465386 0.493765 0.647858
1821 1 0.3743 0.691461 0.688673
1379 1 0.444761 0.681714 0.857221
476 1 0.0355468 0.753908 0.86209
1565 1 0.449555 0.624028 0.800766
481 1 0.326785 0.199563 0.961576
1217 1 0.32148 0.722159 0.749572
1880 1 0.458213 0.0730353 0.96235
947 1 0.148688 0.834152 0.657113
363 1 0.321676 0.952999 0.728143
373 1 0.183878 0.0784467 0.975837
1026 1 0.19989 0.800733 0.697028
897 1 0.00649851 0.731578 0.720642
75 1 0.125757 0.324629 0.916906
1557 1 0.0353154 0.498201 0.796267
1416 1 0.332495 0.85278 0.788065
1550 1 0.0990348 0.497898 0.882097
1521 1 0.159317 0.901207 0.822471
1954 1 0.41594 0.930522 0.696998
455 1 0.1359 0.679465 0.52887
1084 1 0.391149 0.451033 0.584893
1049 1 0.361929 0.814777 0.725031
889 1 0.410679 0.489998 0.522192
830 1 0.441345 0.252234 0.571506
789 1 0.0989496 0.886451 0.626176
387 1 0.269472 0.0164678 0.596708
11 1 0.485584 0.12464 0.725796
828 1 0.332386 0.958758 0.81065
1730 1 0.106979 0.198513 0.688519
934 1 0.34446 0.919432 0.577846
891 1 0.102666 0.109005 0.726781
1927 1 0.258134 0.256368 0.822648
1440 1 0.369857 0.17469 0.895162
145 1 0.30143 0.149934 0.807618
1865 1 0.0322459 0.00360741 0.732937
1165 1 0.176422 0.0182878 0.801693
1132 1 0.229314 0.822492 0.545242
1311 1 0.311218 0.218752 0.702167
194 1 0.187554 0.67614 0.586973
1744 1 0.226117 0.234006 0.719114
1019 1 0.312294 0.435997 0.720025
911 1 0.0195694 0.88922 0.606145
1625 1 0.419522 0.571102 0.752506
1431 1 0.284378 0.342849 0.63725
1609 1 0.395973 0.329449 0.798561
1225 1 0.332461 0.453208 0.795581
331 1 0.284697 0.609934 0.682805
232 1 0.0789241 0.779566 0.566298
180 1 0.394408 0.565334 0.837425
112 1 0.241968 0.549539 0.579217
1567 1 0.472371 0.878802 0.712864
1227 1 0.22455 0.557866 0.714967
872 1 0.500242 0.488536 0.542816
424 1 0.134271 0.910841 0.987682
1372 1 0.157164 0.524706 0.929084
1576 1 0.24549 0.79439 0.829593
133 1 0.195875 0.279849 0.892253
853 1 0.121712 0.699338 0.854492
757 1 0.284911 0.788632 0.765102
1945 1 0.49573 0.200321 0.749396
389 1 0.400639 0.49003 0.838279
1368 1 0.346647 0.595568 0.932399
915 1 0.343895 0.770083 0.915363
33 1 0.11734 0.722606 0.776657
362 1 0.0206815 0.611468 0.968739
241 1 0.42797 0.834622 0.676565
674 1 0.206116 0.961388 0.992532
1101 1 0.406433 0.685796 0.775371
843 1 0.357837 0.831314 0.634107
1178 1 0.172187 0.770715 0.799296
321 1 0.286401 0.839381 0.888838
1177 1 0.405151 0.728966 0.914497
1797 1 0.457245 0.965216 0.609039
1420 1 0.220786 0.0799234 0.815108
1025 1 0.11523 0.742044 0.91158
942 1 0.0696905 0.962618 0.829069
1754 1 0.322212 0.893169 0.849831
873 1 0.407542 0.0349712 0.80129
1618 1 0.450209 0.654891 0.71168
1140 1 0.145344 0.352396 0.66766
984 1 0.459173 0.522542 0.899989
799 1 0.147703 0.604656 0.83696
137 1 0.131647 0.95745 0.77809
1361 1 0.242039 0.109606 0.705811
1805 1 0.38904 0.0483176 0.718745
292 1 0.174264 0.113933 0.764549
994 1 0.228078 0.16349 0.77611
400 1 0.395852 0.369567 0.537885
1522 1 0.248092 0.959384 0.550429
24 1 0.0360996 0.192644 0.693968
1943 1 0.132162 0.36727 0.742069
866 1 0.112677 0.48576 0.97869
160 1 0.0621392 0.239579 0.820322
804 1 0.26988 0.0671881 0.761726
842 1 0.450411 0.0275368 0.683282
1657 1 0.405006 0.338685 0.72345
904 1 0.166623 0.432834 0.830397
1686 1 0.302275 0.676904 0.824158
795 1 0.344042 0.591149 0.774846
1555 1 0.409099 0.963032 0.549154
36 1 0.491096 0.955788 0.98733
1105 1 0.014822 0.598893 0.801638
519 1 0.0353125 0.366301 0.846223
1502 1 0.257101 0.454343 0.820924
2017 1 0.301825 0.469128 0.916791
404 1 0.199276 0.369285 0.893732
1890 1 0.381238 0.531974 0.92801
1263 1 0.0325562 0.393579 0.542039
1845 1 0.229699 0.516927 0.949904
240 1 0.176163 0.627173 0.902761
345 1 0.268584 0.74123 0.938425
972 1 0.149603 0.82701 0.5805
1500 1 0.393669 0.578546 0.997145
92 1 0.383722 0.404468 0.822717
1630 1 0.176027 0.648529 0.779287
1695 1 0.243819 0.890592 0.690703
862 1 0.390515 0.226192 1.00164
430 1 0.39948 0.800605 0.971958
214 1 0.366744 0.894432 0.739882
1073 1 0.124471 0.719215 0.596161
1042 1 0.299137 0.537408 0.945011
1603 1 0.408986 0.463481 0.905862
1298 1 0.17083 0.896161 0.693274
1154 1 0.35387 0.826968 0.858551
1851 1 0.112644 0.0544265 0.825114
1179 1 0.298142 0.973454 0.89211
28 1 0.233492 0.890597 0.873692
1685 1 0.0892045 0.808487 0.851471
766 1 0.203954 0.972243 0.742382
246 1 0.414863 0.855946 0.824117
662 1 0.168287 0.672217 0.980922
1794 1 0.0905198 0.00655876 0.667544
1501 1 0.275236 0.985094 0.997809
1461 1 0.404464 0.942349 0.832259
1803 1 0.313026 0.872557 0.525522
338 1 0.0169787 0.844801 0.550668
673 1 0.21964 0.680842 0.924655
1247 1 0.0292766 0.911944 0.687263
1494 1 0.158011 0.156463 0.822531
465 1 0.386672 0.0946966 0.849374
2040 1 0.25941 0.174529 0.670477
129 1 0.340589 0.264209 0.881832
1642 1 0.362236 0.0229576 0.860873
1981 1 0.345529 0.298253 0.647535
593 1 0.081691 0.249807 0.511199
566 1 0.0569385 0.15297 0.801726
1852 1 0.278392 0.21835 0.767288
1106 1 0.249163 0.692504 0.548692
1085 1 0.296539 0.335531 0.848252
1622 1 0.00768619 0.809527 0.68668
1582 1 0.0618045 0.383651 0.770212
1593 1 0.309781 0.304661 0.774494
561 1 0.2909 0.166707 0.876911
876 1 0.0451467 0.485845 0.675713
217 1 0.225917 0.223548 1.00172
1321 1 0.031672 0.0958187 0.506329
2023 1 0.266455 0.341844 0.915413
471 1 0.348011 0.969005 0.629659
1436 1 0.0740066 0.56313 0.837277
353 1 0.221519 0.565858 0.819248