ITEM: TIMESTEP
100000
ITEM: NUMBER OF ATOMS
2048
ITEM: BOX BOUNDS pp pp pp
0.0000000000000000e+00 1.2302095357258066e+01
0.0000000000000000e+00 1.2302095357258066e+01
0.0000000000000000e+00 1.2302095357258066e+01
ITEM: ATOMS id type xs ys zs
560 1 0.055214 0.182981 0.0114119
1387 1 0.131604 0.132903 0.0215975
656 1 0.465185 0.637088 0.00906314
1369 1 0.044974 0.923451 0.436892
612 1 0.383835 0.0806696 0.153743
601 1 0.249448 0.268839 0.0877075
193 1 0.417241 0.942171 0.349739
1465 1 0.324051 0.776213 0.49342
1555 1 0.0165523 0.199983 0.483047
1761 1 0.490256 0.523057 0.0810039
664 1 0.0446152 0.522859 0.354851
98 1 0.094138 0.335014 0.483749
1647 1 0.426577 0.315224 0.0301876
65 1 0.0381063 0.893269 0.242864
157 1 0.312412 0.460112 0.467665
240 1 0.037977 0.00838379 0.408855
222 1 0.436383 0.009018 0.387872
942 1 0.408161 0.267619 0.112221
394 1 0.425616 0.837802 0.0737835
387 1 0.024924 0.851992 0.0634907
633 1 0.357367 0.744533 0.0583669
1280 1 0.253301 0.424015 0.0153277
739 1 0.47715 0.627288 0.489007
1299 1 0.0785142 0.619872 0.458426
540 1 0.111611 0.461896 0.0469144
865 1 0.0561723 0.817388 0.358554
366 1 0.218336 0.658041 0.445635
1825 1 0.478781 0.141363 0.368819
877 1 0.205485 0.203482 0.0580033
1230 1 0.415211 0.57734 0.266274
1858 1 0.400446 0.546581 0.116717
1654 1 0.0958106 0.969932 0.483501
1515 1 0.387398 0.240181 0.0300051
452 1 0.217121 0.331664 0.0209615
1816 1 0.18221 0.147909 0.118363
1088 1 0.0703525 0.0389664 0.288109
272 1 0.271932 0.15142 0.478327
285 1 0.462027 0.740435 0.0316546
686 1 0.199263 0.331564 0.421695
988 1 0.0484918 0.653205 0.394946
1191 1 0.143493 0.796806 0.107018
111 1 0.223221 0.930918 0.0571858
423 1 0.145141 0.26849 0.431693
764 1 0.235825 0.489394 0.395002
498 1 0.293292 0.868076 0.0477836
675 1 0.38118 0.868665 0.0132104
1037 1 0.14309 0.924614 0.0467957
192 1 0.232376 0.815347 0.0742359
1928 1 0.410253 0.790815 0.415015
1932 1 0.0419903 0.571859 0.0256928
1655 1 0.195349 0.745255 0.415114
1261 1 0.375366 0.160419 0.00978314
1522 1 0.148612 0.00838898 0.0817962
708 1 0.204701 0.970443 0.456482
1486 1 0.189555 0.0760104 0.087958
908 1 0.466118 0.0690925 0.130118
1797 1 0.0796938 0.11014 0.154868
1118 1 0.263887 0.379235 0.465249
520 1 0.363552 0.181353 0.5006
826 1 0.424093 0.126957 0.064529
1039 1 0.0997267 0.16025 0.0861938
461 1 0.46164 0.829837 0.46095
2005 1 0.341727 0.287324 0.0755807
642 1 0.454269 0.217638 0.070984
1821 1 0.465324 0.469633 0.0268376
1384 1 0.421919 0.608649 0.161895
1436 1 0.170547 0.279373 0.066619
936 1 0.462031 0.42937 0.262699
1428 1 0.279037 0.20977 0.128704
179 1 0.129659 0.357903 0.0511302
1467 1 0.302354 0.358046 0.0334028
1408 1 0.0691038 0.0544799 0.482751
719 1 0.209984 0.901156 0.419699
316 1 0.452021 0.329299 0.109025
1496 1 0.0558336 0.775362 0.499062
2004 1 0.0441382 0.445135 0.11257
575 1 0.4179 0.404308 0.141337
1038 1 0.406216 0.434833 0.0633083
1298 1 0.237 0.467024 0.483676
1434 1 0.312748 0.527158 0.0687751
1316 1 0.441467 0.478467 0.124015
1015 1 0.229239 0.477855 0.0734774
162 1 0.335932 0.439442 0.0198611
898 1 0.389744 0.597484 0.0503191
266 1 0.0467432 0.51197 0.177619
772 1 0.136176 0.728878 0.0357574
563 1 0.443253 0.974924 0.0271866
1856 1 0.274113 0.48237 0.136467
681 1 0.484402 0.703646 0.103325
75 1 0.00198157 0.209282 0.330534
677 1 0.0852336 0.725704 0.0965623
1551 1 0.101168 0.653507 0.0321779
175 1 0.0809702 0.402471 0.438315
787 1 0.0397938 0.904399 0.348664
1378 1 0.0434804 0.591107 0.145304
1100 1 0.186983 0.609898 0.154081
1776 1 0.379285 0.517483 0.0286327
576 1 0.308065 0.200956 0.0555367
1892 1 0.347928 0.698821 0.123801
364 1 0.320528 0.644596 0.41112
591 1 0.109834 0.855168 0.0577532
1302 1 0.082505 0.467306 0.482351
534 1 0.343914 0.812287 0.095065
1798 1 0.411653 0.680033 0.0801496
320 1 0.19258 0.749818 0.154752
1901 1 0.106822 0.756705 0.167538
1983 1 0.287648 0.857531 0.130548
407 1 0.277808 0.0922673 0.00246725
820 1 0.486468 0.350593 0.35377
119 1 0.303524 0.945554 0.0999229
1993 1 0.364801 0.963595 0.0297871
1795 1 0.144835 0.937666 0.122632
1137 1 0.280659 0.0575502 0.0985032
747 1 0.361861 0.656601 0.482763
1233 1 0.107695 0.0810054 0.0840912
354 1 0.322881 0.797949 0.0173692
1868 1 0.0512496 0.233018 0.0758224
241 1 0.24237 0.134878 0.0644486
1374 1 0.298181 0.999906 0.183054
2006 1 0.326911 0.127376 0.0805838
34 1 0.176009 0.59608 0.0715233
1777 1 0.162611 0.518019 0.0503448
1375 1 0.135596 0.773723 0.483383
340 1 0.345136 0.054443 0.0522567
913 1 0.362105 0.195893 0.116251
1775 1 0.255757 0.122812 0.144259
1364 1 0.22653 0.186974 0.182721
1002 1 0.459948 0.266123 0.173418
250 1 0.00926921 0.465054 0.309099
1828 1 0.00694878 0.590381 0.432623
734 1 0.310227 0.0768552 0.175893
14 1 0.00316196 0.2771 0.498659
1818 1 0.224587 0.303551 0.164671
1948 1 0.298804 0.334848 0.135043
587 1 0.0210105 0.278966 0.136276
2018 1 0.401501 0.54519 0.197894
430 1 0.0262753 0.425776 0.188535
105 1 0.14631 0.332538 0.139136
231 1 0.35918 0.378654 0.0886214
1348 1 0.384666 0.333931 0.147834
262 1 0.496309 0.759986 0.407179
722 1 0.341633 0.40387 0.156409
264 1 0.235373 0.992378 0.103736
1514 1 0.117735 0.408475 0.108351
838 1 0.113224 0.516006 0.241053
927 1 0.464423 0.16042 0.444168
1262 1 0.200569 0.421234 0.132097
1415 1 0.21579 0.351528 0.100543
1771 1 0.275537 0.595299 0.101775
668 1 0.461804 0.993152 0.298319
1936 1 0.374233 0.967436 0.480213
1367 1 0.145862 0.487265 0.122061
91 1 0.213471 0.538755 0.12782
35 1 0.144038 0.610307 0.223518
87 1 0.330981 0.502991 0.217534
1994 1 0.0934791 0.542404 0.0801625
1965 1 0.227068 0.658351 0.0681789
903 1 0.351446 0.610002 0.115151
1850 1 0.268242 0.772437 0.134211
298 1 0.266673 0.690703 0.128399
1124 1 0.0353798 0.727706 0.159754
507 1 0.106723 0.628547 0.107576
778 1 0.357433 0.729019 0.223557
622 1 0.424243 0.759306 0.10247
644 1 0.446679 0.831832 0.148305
92 1 0.439301 0.922786 0.0795716
427 1 0.0705707 0.986418 0.13872
1516 1 0.17465 0.868776 0.101371
2017 1 0.450878 0.632998 0.384462
22 1 0.0307358 0.958466 0.202887
1081 1 0.233648 0.915783 0.130974
2014 1 0.211106 0.716134 0.00413911
629 1 0.364216 0.8606 0.17182
631 1 0.383474 0.992123 0.289883
1147 1 0.120513 0.179901 0.159381
510 1 0.179157 0.110015 0.192839
1999 1 0.235787 0.044923 0.166293
1708 1 0.371451 0.0144368 0.213321
176 1 0.332032 0.152152 0.174528
1530 1 0.183394 0.233949 0.131851
578 1 0.207331 0.14141 0.266414
1906 1 0.337279 0.26454 0.150742
201 1 0.221072 0.258487 0.232412
41 1 0.405956 0.136729 0.208482
1823 1 0.0479245 0.355317 0.0948665
1425 1 0.0955732 0.400694 0.260417
1438 1 0.393114 0.210544 0.183693
832 1 0.0392502 0.69861 0.469219
1611 1 0.202738 0.738155 0.0784288
155 1 0.0324473 0.313923 0.217866
7 1 0.283141 0.285313 0.0195936
1774 1 0.0994582 0.449644 0.184789
779 1 0.250161 0.401561 0.279123
1650 1 0.177371 0.444181 0.243306
976 1 0.257203 0.478322 0.224847
1627 1 0.392525 0.460375 0.201911
856 1 0.14058 0.0276015 0.42589
1590 1 0.178821 0.50938 0.196552
653 1 0.280976 0.405371 0.103136
2016 1 0.341456 0.461059 0.0920683
1908 1 0.0542566 0.466422 0.248283
1992 1 0.123229 0.555321 0.17003
928 1 0.265956 0.415325 0.178707
718 1 0.177339 0.679877 0.275402
333 1 0.315513 0.559774 0.160206
1028 1 0.0366245 0.535447 0.27638
1747 1 0.0840443 0.643435 0.186418
938 1 0.0653758 0.575949 0.21846
1968 1 0.418352 0.708598 0.163324
1922 1 0.315974 0.581235 0.0115396
1633 1 0.375223 0.776542 0.159527
356 1 0.0637465 0.724195 0.363407
1900 1 0.284817 0.630724 0.184955
1160 1 0.360476 0.662893 0.190441
352 1 0.492203 0.658249 0.171667
1927 1 0.421826 0.208399 0.290309
1087 1 0.247296 0.714782 0.293393
81 1 0.0712377 0.820366 0.13115
999 1 0.24774 0.735351 0.213603
1597 1 0.361851 0.889953 0.0945611
967 1 0.456887 0.862207 0.216254
1576 1 0.0911171 0.884139 0.188248
1860 1 0.151058 0.689601 0.190038
473 1 0.149905 0.819912 0.192915
916 1 0.227107 0.813916 0.185266
602 1 0.117592 0.217755 0.0285148
1324 1 0.0383861 0.0932186 0.242589
802 1 0.113022 0.957589 0.213385
94 1 0.354824 0.939203 0.160124
288 1 0.344774 0.00956983 0.117614
1426 1 0.461759 0.347035 0.278733
609 1 0.0750469 0.0306064 0.207741
219 1 0.151136 0.0106812 0.162555
1504 1 0.267788 0.967296 0.275075
1297 1 0.0789319 0.172387 0.239235
594 1 0.222868 0.0668033 0.248785
512 1 0.352575 0.09033 0.249173
957 1 0.4792 0.106397 0.212044
223 1 0.115458 0.0922578 0.242075
827 1 0.0272896 0.203501 0.15956
346 1 0.279975 0.191885 0.277841
1945 1 0.172571 0.456378 0.359041
608 1 0.396513 0.282601 0.316522
849 1 0.438805 0.122018 0.280733
863 1 0.108733 0.267442 0.116367
2011 1 0.287495 0.271534 0.288301
1954 1 0.0205391 0.489663 0.0327935
949 1 0.360664 0.246005 0.253675
397 1 0.0056456 0.62429 0.253217
450 1 0.195637 0.365274 0.206979
1398 1 0.270023 0.337341 0.236998
1266 1 0.456004 0.440631 0.436733
1431 1 0.202785 0.541135 0.343464
2042 1 0.388579 0.453019 0.279417
944 1 0.279776 0.934763 0.00137429
1144 1 0.271216 0.605271 0.478081
1069 1 0.0540394 0.419202 0.012498
1391 1 0.304927 0.532025 0.349736
1075 1 0.39454 0.385009 0.220317
1735 1 0.0436005 0.278462 0.344985
421 1 0.262275 0.547485 0.285346
632 1 0.184883 0.548786 0.262538
493 1 0.358767 0.522961 0.286614
2003 1 0.0327866 0.0497329 0.119301
1339 1 0.101753 0.585972 0.286241
1755 1 0.23899 0.631818 0.306072
224 1 0.0278207 0.708275 0.236683
897 1 0.1639 0.68189 0.110642
1307 1 0.249617 0.563305 0.205037
50 1 0.0828634 0.333297 0.400591
1863 1 0.0672198 0.778015 0.0397019
1495 1 0.200644 0.856603 0.263488
1507 1 0.426657 0.772258 0.222888
847 1 0.0503227 0.801261 0.229516
986 1 0.118297 0.753294 0.246454
1048 1 0.308409 0.80508 0.19639
437 1 0.419388 0.578227 0.467634
1984 1 0.186069 0.894428 0.329463
273 1 0.385152 0.803355 0.276188
1286 1 0.470563 0.916037 0.159772
465 1 0.457872 0.566466 0.343268
883 1 0.127939 0.889522 0.260898
1807 1 0.214178 0.974027 0.196355
1578 1 0.470759 0.379602 0.0473363
447 1 0.130077 0.96075 0.31252
1020 1 0.156338 0.0198106 0.247268
1140 1 0.31067 0.122919 0.30943
1346 1 0.0953424 0.110257 0.334458
462 1 0.0720123 0.178612 0.314425
258 1 0.195021 0.00689675 0.320635
1113 1 0.276834 0.124666 0.231929
1700 1 0.31154 0.00474053 0.332688
1787 1 0.391588 0.0627156 0.321587
1026 1 0.166018 0.199259 0.228927
1649 1 0.078454 0.254482 0.190534
874 1 0.296809 0.230416 0.21218
1738 1 0.353213 0.168477 0.253901
1005 1 0.280946 0.367034 0.38604
1871 1 0.267942 0.218496 0.376937
1202 1 0.382265 0.138989 0.328119
670 1 0.0560489 0.247915 0.265916
866 1 0.0817102 0.364883 0.181782
1249 1 0.150791 0.275064 0.202603
785 1 0.362556 0.98231 0.392488
1811 1 0.0145207 0.387799 0.272348
26 1 0.139797 0.360964 0.316417
1232 1 0.453842 0.344516 0.19328
854 1 0.142852 0.11482 0.460676
2021 1 0.462409 0.598771 0.0957465
701 1 0.337009 0.31093 0.211706
842 1 0.321255 0.422868 0.234547
796 1 0.321051 0.902391 0.487809
2030 1 0.227445 0.478112 0.303206
1960 1 0.140912 0.57422 0.494613
1630 1 0.12428 0.458441 0.297134
1193 1 0.091794 0.665608 0.274684
99 1 0.129441 0.530096 0.333076
9 1 0.317627 0.604738 0.313309
28 1 0.385131 0.575416 0.383406
1323 1 0.0186675 0.675618 0.313332
638 1 0.131246 0.73631 0.321454
1714 1 0.479183 0.593719 0.219488
1940 1 0.36691 0.66929 0.27971
62 1 0.419897 0.0933487 0.399837
115 1 0.267775 0.70153 0.405226
595 1 0.294468 0.665701 0.255267
1347 1 0.437429 0.666628 0.230586
1244 1 0.446724 0.641224 0.306873
1764 1 0.109986 0.825588 0.305453
1851 1 0.196536 0.778973 0.255794
425 1 0.294765 0.766345 0.326829
869 1 0.058907 0.0323402 0.044998
625 1 0.453749 0.361358 0.424878
1400 1 0.124686 0.862162 0.375129
200 1 0.301255 0.887381 0.381699
682 1 0.260345 0.89986 0.208379
482 1 0.162623 0.478511 0.465115
1579 1 0.464532 0.212614 0.354232
1925 1 0.192089 0.946274 0.266713
1861 1 0.47597 0.935888 0.235986
1216 1 0.175053 0.895213 0.194026
1746 1 0.333718 0.942117 0.238525
1116 1 0.389766 0.883396 0.254148
991 1 0.162828 0.0784706 0.301982
615 1 0.260141 0.0619728 0.320258
1148 1 0.446962 0.951514 0.439683
791 1 0.382022 0.156529 0.424531
43 1 0.126879 0.156143 0.387847
1538 1 0.243117 0.150924 0.33642
1665 1 0.0301259 0.0755375 0.361241
1099 1 0.386482 0.0367222 0.445798
1830 1 0.107011 0.235031 0.373815
199 1 0.139198 0.250498 0.285274
455 1 0.219886 0.231369 0.307437
1879 1 0.0602655 0.133163 0.479528
1641 1 0.164305 0.302846 0.358622
1451 1 0.33677 0.215657 0.334774
1916 1 0.310491 0.153189 0.391237
831 1 0.118526 0.58107 0.00337479
1931 1 0.20165 0.317096 0.284645
1721 1 0.376094 0.362432 0.290215
198 1 0.41655 0.295159 0.240153
282 1 0.404825 0.370914 0.484472
1003 1 0.29094 0.347538 0.312622
90 1 0.317985 0.796733 0.414719
309 1 0.101007 0.323434 0.259505
1995 1 0.066046 0.432919 0.352434
582 1 0.431651 0.404129 0.334406
1350 1 0.381612 0.424661 0.42966
904 1 0.485315 0.0746868 0.319649
1685 1 0.175006 0.794923 0.0251739
1022 1 0.299516 0.442435 0.389129
1769 1 0.358744 0.394047 0.361669
196 1 0.3458 0.588516 0.239032
1460 1 0.182663 0.63719 0.00174126
1389 1 0.167931 0.611065 0.338744
857 1 0.275177 0.0184763 0.0314213
1962 1 0.441542 0.166346 0.133385
795 1 0.19245 0.683511 0.363455
900 1 0.295179 0.697794 0.48339
311 1 0.00583605 0.98604 0.48126
1998 1 0.484457 0.282592 0.318267
1462 1 0.495028 0.74442 0.324955
156 1 0.300905 0.680818 0.336381
1173 1 0.00962038 0.861766 0.171056
1131 1 0.186662 0.798123 0.333205
517 1 0.218687 0.633238 0.222749
1981 1 0.423566 0.727864 0.294776
650 1 0.496838 0.892506 0.0220153
1778 1 0.267605 0.813044 0.272504
1114 1 0.446343 0.800457 0.339555
1563 1 0.385071 0.474721 0.356357
784 1 0.119333 0.77882 0.399238
17 1 0.318821 0.861955 0.245452
270 1 0.392409 0.850833 0.364306
1899 1 0.168741 0.967044 0.382903
1631 1 0.280746 0.303032 0.446944
1964 1 0.251554 0.948639 0.349275
257 1 0.263067 0.880792 0.309967
680 1 0.0165574 0.00491231 0.333657
1684 1 0.205555 0.062707 0.464132
1512 1 0.276423 0.947907 0.422328
1866 1 0.0671991 0.294099 0.030339
1639 1 0.262851 0.0892227 0.403222
1258 1 0.298945 0.0360517 0.251605
1290 1 0.465669 0.884342 0.388379
665 1 0.17988 0.087182 0.389399
19 1 0.15324 0.176171 0.312451
325 1 0.0464084 0.147033 0.387048
127 1 0.34213 0.0694008 0.384174
1629 1 0.0669791 0.268933 0.447165
1730 1 0.17446 0.188682 0.477649
278 1 0.139682 0.672534 0.500333
912 1 0.0584139 0.355419 0.331058
760 1 0.140408 0.387061 0.388879
845 1 0.332314 0.221157 0.428178
885 1 0.390003 0.508098 0.481288
184 1 0.465862 0.279153 0.395723
910 1 0.424824 0.227484 0.462765
2033 1 0.243659 0.291263 0.352733
1430 1 0.032438 0.113214 0.0727606
456 1 0.471059 0.700465 0.461783
1205 1 0.00031103 0.116781 0.15825
147 1 0.0551747 0.526454 0.442886
1539 1 0.21075 0.38371 0.345847
1246 1 0.105813 0.472506 0.407833
1220 1 0.434529 0.513871 0.40897
689 1 0.0078629 0.716491 0.0295914
379 1 0.31569 0.446681 0.310395
769 1 0.350023 0.510496 0.413344
245 1 0.0266412 0.598452 0.323982
1086 1 0.117218 0.662512 0.35127
1760 1 0.371061 0.756013 0.346178
887 1 0.245457 0.775268 0.471095
1596 1 0.277395 0.545383 0.431697
378 1 0.375681 0.662213 0.361664
1356 1 0.431496 0.716176 0.394712
980 1 0.0334546 0.767506 0.423659
1443 1 0.245572 0.797373 0.385237
1736 1 0.0957701 0.5716 0.393336
1985 1 0.210622 0.408627 0.420133
1103 1 0.485566 0.763279 0.169204
1222 1 0.329253 0.836362 0.323684
1672 1 0.488296 0.470099 0.196471
1547 1 0.129023 0.890646 0.44776
915 1 0.450886 0.508642 0.252502
363 1 0.422594 0.978108 0.165129
373 1 0.0932236 0.956973 0.386089
714 1 0.118802 0.02871 0.352015
2038 1 0.341958 0.931578 0.317166
872 1 0.447376 0.884846 0.311151
446 1 0.230473 0.0213707 0.388563
1671 1 0.0651888 0.914691 0.112141
440 1 0.30622 0.0227799 0.436767
2013 1 0.184454 0.211583 0.372039
1898 1 0.198596 0.0964817 0.00794523
1814 1 0.457275 0.0330644 0.472611
1873 1 0.243097 0.54935 0.0421409
973 1 0.374983 0.288032 0.444483
1260 1 0.093367 0.194378 0.44498
881 1 0.211361 0.147172 0.424745
15 1 0.473452 0.19143 0.197406
451 1 0.330882 0.0931145 0.461809
140 1 0.178519 0.824943 0.417978
1036 1 0.320121 0.290692 0.366484
18 1 0.419623 0.0635945 0.0130735
2001 1 0.0161619 0.530748 0.108846
84 1 0.0616739 0.936794 0.037056
1864 1 0.338672 0.361587 0.437538
945 1 0.39944 0.325947 0.379379
530 1 0.222746 0.544664 0.495155
867 1 0.228889 0.248993 0.442505
1479 1 0.373536 0.908318 0.417502
445 1 0.275258 0.735005 0.0484565
723 1 0.00935938 0.836367 0.299453
822 1 0.00268331 0.648802 0.179439
1300 1 0.492481 0.576974 0.428706
335 1 0.427576 0.0529334 0.25454
1150 1 0.196876 0.990628 0.00417158
1256 1 0.193259 0.557423 0.418218
1545 1 0.373021 0.84632 0.469515
1315 1 0.340215 0.579148 0.500455
752 1 0.0680479 0.83989 0.429528
191 1 0.150574 0.623047 0.41999
1979 1 0.242377 0.603765 0.380912
101 1 0.00188452 0.232713 0.411758
1567 1 0.333124 0.65226 0.0415597
1937 1 0.0942868 0.0870429 0.410491
1606 1 0.426155 0.762086 0.484344
1397 1 0.198418 0.870182 0.016105
1183 1 0.415847 0.0248905 0.0817606
1865 1 0.182367 0.414132 0.0522667
1754 1 0.398183 0.237814 0.388825
1483 1 0.0184074 0.676879 0.0992649
185 1 0.484006 0.0109642 0.214705
1242 1 0.27115 0.852935 0.444265
1090 1 0.345999 0.719624 0.427076
1080 1 0.0344354 0.759134 0.301226
2010 1 0.450568 0.556406 0.0203164
1549 1 0.476185 0.469605 0.359102
244 1 0.0594915 0.957694 0.288828
178 1 0.109537 0.692517 0.420677
939 1 0.457076 0.8186 0.00851473
60 1 0.194271 0.838505 0.493273
1097 1 0.149546 0.395227 0.476335
395 1 0.49712 0.0282227 0.062278
555 1 0.501011 0.249049 0.238818
1712 1 0.481885 0.552717 0.154064
879 1 0.403166 0.692614 0.00467142
496 1 0.175231 0.326809 0.497442
1435 1 0.00267128 0.161588 0.229253
1585 1 0.493903 0.065017 0.399406
792 1 0.494277 0.999827 0.138269
774 1 0.492517 0.815998 0.26714
692 1 0.00800194 0.312678 0.410872
1267 1 0.380626 0.38093 0.00449891
69 1 0.139902 0.0426559 0.00620113
57 1 0.262955 0.649633 0.00140103
836 1 0.49651 0.088015 0.000247277
409 1 0.472762 0.383064 0.894347
1946 1 0.39461 0.555867 0.70192
1282 1 0.455513 0.276725 0.76886
1304 1 0.342892 0.939775 0.55436
968 1 0.139733 0.901924 0.901717
61 1 0.318695 0.197271 0.574359
1733 1 0.241916 0.23 0.513672
1331 1 0.449574 0.400937 0.978245
475 1 0.237204 0.912481 0.499513
1214 1 0.429199 0.144306 0.697265
290 1 0.00556465 0.493302 0.629628
360 1 0.412885 0.295749 0.514484
453 1 0.0678573 0.260126 0.560493
1602 1 0.466298 0.532417 0.737924
1732 1 0.0978981 0.320273 0.602654
1115 1 0.0280739 0.939486 0.678572
899 1 0.42346 0.469412 0.568292
1121 1 0.454408 0.544288 0.597317
830 1 0.00564228 0.940041 0.852697
1767 1 0.180614 0.259144 0.563489
1594 1 0.0824648 0.356398 0.966947
1004 1 0.156902 0.0170289 0.507599
1199 1 0.210435 0.22608 0.910211
1235 1 0.0921653 0.812854 0.890905
724 1 0.21428 0.425409 0.935411
1715 1 0.0845899 0.870852 0.607366
1878 1 0.497744 0.662894 0.648352
47 1 0.102685 0.681929 0.701381
97 1 0.0621658 0.699751 0.978383
806 1 0.402648 0.15728 0.568142
1335 1 0.261186 0.071205 0.517673
171 1 0.354237 0.304205 0.987255
448 1 0.430857 0.487527 0.659498
1848 1 0.414394 0.90717 0.510704
1511 1 0.00808683 0.869852 0.899705
1506 1 0.303734 0.563049 0.634085
858 1 0.0258483 0.490154 0.847802
72 1 0.0787543 0.613843 0.542389
1959 1 0.40781 0.796602 0.882882
300 1 0.0269486 0.496307 0.958543
63 1 0.0420601 0.960282 0.544392
189 1 0.115898 0.634586 0.950613
1527 1 0.498858 0.844228 0.925201
993 1 0.204161 0.619871 0.521697
1184 1 0.237653 0.638343 0.620769
1352 1 0.264568 0.575207 0.953693
243 1 0.126492 0.659747 0.876743
588 1 0.447026 0.0706675 0.562056
433 1 0.283535 0.646601 0.548483
1463 1 0.00592559 0.658188 0.534379
404 1 0.040216 0.834373 0.823205
736 1 0.371853 0.0868304 0.594663
153 1 0.0448583 0.393712 0.822352
499 1 0.108607 0.430189 0.959745
1094 1 0.345828 0.040717 0.532368
1029 1 0.479659 0.900344 0.623738
1571 1 0.0747211 0.875018 0.99186
824 1 0.374249 0.439953 0.515855
1952 1 0.469213 0.833355 0.849212
1145 1 0.0290088 0.417772 0.932282
648 1 0.480416 0.588741 0.947359
984 1 0.0896289 0.0685849 0.634144
1174 1 0.132351 0.555661 0.930723
1010 1 0.0535631 0.167121 0.620279
2027 1 0.214288 0.137355 0.625164
804 1 0.401271 0.095004 0.500369
1392 1 0.0488729 0.35094 0.543143
828 1 0.383853 0.566475 0.886324
1734 1 0.197089 0.12077 0.513503
369 1 0.368239 0.154559 0.640007
590 1 0.025009 0.643799 0.670201
170 1 0.235981 0.21434 0.615274
546 1 0.00668705 0.780525 0.882787
296 1 0.426321 0.20237 0.621704
688 1 0.238394 0.296202 0.643969
2000 1 0.244757 0.323921 0.526292
1464 1 0.490918 0.197331 0.756846
990 1 0.330185 0.337435 0.511815
312 1 0.388332 0.352464 0.636072
1944 1 0.0878757 0.179077 0.939336
399 1 0.0380826 0.37092 0.618529
652 1 0.266748 0.354415 0.598731
2025 1 0.0423427 0.0634354 0.851288
2 1 0.182655 0.348708 0.590467
952 1 0.11846 0.389995 0.565849
566 1 0.0581073 0.439763 0.571811
1042 1 0.268821 0.841947 0.521683
1070 1 0.15084 0.70321 0.936399
237 1 0.341711 0.383737 0.576087
1456 1 0.129014 0.550642 0.566553
1204 1 0.25759 0.571383 0.56501
1895 1 0.391074 0.547365 0.54864
713 1 0.152705 0.559243 0.699181
48 1 0.328783 0.449758 0.721286
422 1 0.359434 0.727354 0.540729
341 1 0.496534 0.0917997 0.85908
702 1 0.0138165 0.566353 0.667388
323 1 0.368194 0.633514 0.562852
1844 1 0.365191 0.734991 0.624648
1580 1 0.147631 0.649218 0.577086
16 1 0.0242704 0.58193 0.589061
1239 1 0.443338 0.729987 0.615126
1653 1 0.0764342 0.798193 0.567607
843 1 0.223311 0.783047 0.549392
1206 1 0.00662857 0.640418 0.987774
839 1 0.138009 0.845039 0.957219
554 1 0.408796 0.866049 0.654254
1768 1 0.4289 0.012324 0.761022
1834 1 0.262155 0.915584 0.671556
1832 1 0.00563997 0.358729 0.989899
1360 1 0.343898 0.861576 0.549799
552 1 0.160681 0.928572 0.510057
1976 1 0.147024 0.743755 0.557489
52 1 0.487445 0.721351 0.959287
571 1 0.208105 0.708322 0.504166
1503 1 0.117705 0.93974 0.579594
1680 1 0.490757 0.454765 0.742187
890 1 0.283998 0.103932 0.613595
1079 1 0.360726 0.984895 0.61894
1524 1 0.216283 0.0727065 0.580307
1687 1 0.215089 0.981137 0.547914
1117 1 0.052095 0.574034 0.940867
1053 1 0.037137 0.904038 0.764079
1509 1 0.0150689 0.0260803 0.581539
326 1 0.290512 0.165626 0.667577
1963 1 0.0476547 0.643208 0.901421
271 1 0.0868734 0.966398 0.804972
880 1 0.251979 0.153234 0.55943
790 1 0.442947 0.226814 0.700438
1986 1 0.0787055 0.126023 0.687871
1692 1 0.282261 0.274675 0.573909
611 1 0.0807005 0.229627 0.654978
803 1 0.329731 0.712641 0.98558
1750 1 0.454844 0.187192 0.518951
711 1 0.112983 0.583961 0.636807
1991 1 0.216414 0.399284 0.524561
1637 1 0.319378 0.32112 0.672217
1717 1 0.378066 0.430173 0.635919
1156 1 0.0300702 0.0617163 0.690617
799 1 0.406089 0.274207 0.629084
1349 1 0.214323 0.30357 0.728591
401 1 0.2958 0.505383 0.531934
345 1 0.206021 0.513885 0.658876
882 1 0.221665 0.423929 0.607638
2041 1 0.495187 -0.000420698 0.958897
1817 1 0.143552 0.474198 0.561199
1508 1 0.226313 0.488843 0.563345
636 1 0.189399 0.578917 0.614704
1701 1 0.162905 0.64257 0.654719
672 1 0.164158 0.63003 0.740847
1975 1 0.331995 0.639974 0.632644
1849 1 0.380828 0.581495 0.627515
1980 1 0.267929 0.926714 0.575631
551 1 0.01657 0.729657 0.696238
1186 1 0.399469 0.631171 0.703847
1620 1 0.450723 0.788343 0.671227
901 1 0.212516 0.717098 0.592086
1956 1 0.297016 0.757326 0.667644
1243 1 0.400799 0.790823 0.578099
1951 1 0.0442192 0.993532 0.732705
502 1 0.262848 0.84272 0.610562
1066 1 0.0778893 0.746263 0.624215
593 1 0.297935 0.841027 0.685347
2008 1 0.366016 0.934863 0.678472
815 1 0.135552 0.803088 0.647609
1577 1 0.158139 0.0184862 0.597794
268 1 0.492575 0.822177 0.614672
1275 1 0.381951 0.951739 0.760531
694 1 0.0913583 0.0173111 0.564388
1198 1 0.325099 0.891757 0.628466
40 1 0.000621093 0.703014 0.866152
1772 1 0.172844 0.182991 0.555588
2019 1 0.348256 0.0379147 0.739233
44 1 0.36074 0.0751752 0.66974
53 1 0.336289 0.234302 0.640193
1047 1 0.418654 0.0908227 0.748866
687 1 0.0706088 0.985655 0.632707
1949 1 0.49552 0.165042 0.831662
449 1 0.152411 0.221477 0.745742
1988 1 0.228181 0.120402 0.707964
1877 1 0.471893 0.544679 0.515429
1934 1 0.0176505 0.689516 0.603457
302 1 0.351864 0.308469 0.581241
712 1 0.321973 0.123891 0.539832
740 1 0.0704499 0.191973 0.725428
2037 1 0.112341 0.387591 0.694471
801 1 0.165374 0.238085 0.642578
1675 1 0.444201 0.317014 0.691221
1474 1 0.148984 0.430739 0.639388
1540 1 0.412165 0.168416 0.769519
177 1 0.412242 0.916293 0.588218
539 1 0.282931 0.318279 0.762183
1933 1 0.377497 0.272019 0.705821
1454 1 0.306466 0.431156 0.863361
1874 1 0.0978359 0.462679 0.825316
1334 1 0.293897 0.422559 0.532834
1678 1 0.271601 0.483805 0.620755
1180 1 0.280563 0.00849021 0.580022
169 1 0.250498 0.442638 0.690366
1403 1 0.323883 0.398045 0.784921
833 1 0.349667 0.52 0.752565
203 1 0.330755 0.22096 0.977941
1870 1 0.0599724 0.439358 0.653038
1420 1 0.275906 0.523655 0.695569
1343 1 0.0148952 0.585593 0.508581
1393 1 0.09223 0.507488 0.623493
238 1 0.0697336 0.522534 0.720893
365 1 0.320998 0.511558 0.825389
1353 1 0.284428 0.560245 0.775642
1301 1 0.45754 0.408184 0.81124
1741 1 0.190316 0.558717 0.980125
855 1 0.274363 0.633472 0.800867
1667 1 0.430199 0.680927 0.539531
1614 1 0.206311 0.581772 0.781525
30 1 0.231257 0.583653 0.683143
1891 1 0.291522 0.708696 0.599626
1947 1 0.0623917 0.987015 0.891033
1151 1 0.0885081 0.656053 0.626964
716 1 0.443857 0.702203 0.693936
281 1 0.341694 0.809887 0.628195
1644 1 0.299664 0.782107 0.568506
306 1 0.254773 0.491042 0.973684
393 1 0.0975089 0.859514 0.691535
937 1 0.199269 0.885531 0.58008
1372 1 0.254081 0.874754 0.751496
658 1 0.211556 0.955806 0.623914
1023 1 0.342605 0.481298 0.586577
584 1 0.237844 0.0304671 0.644332
247 1 0.473195 0.437335 0.516171
1689 1 0.103424 0.0339768 0.705598
580 1 0.150073 0.895588 0.641426
617 1 0.241222 0.982413 0.709347
414 1 0.444583 0.948393 0.680795
959 1 0.168189 0.986945 0.747852
763 1 0.360037 0.00999586 0.807889
1674 1 0.12386 0.134775 0.601893
235 1 0.168069 0.0768228 0.658978
1345 1 0.202014 0.166955 0.777955
1493 1 0.364301 0.0910096 0.803624
1656 1 0.449398 0.662212 0.928867
432 1 0.502098 0.77311 0.89863
1032 1 0.157919 0.313143 0.658379
1188 1 0.361242 0.196016 0.711662
511 1 0.280526 0.271542 0.941745
67 1 0.145308 0.462599 0.727344
1382 1 0.0748974 0.35908 0.756975
2009 1 0.433994 0.23737 0.841894
11 1 0.0270804 0.376409 0.698902
1621 1 0.212354 0.329653 0.809333
377 1 0.0455541 0.813183 0.656771
419 1 0.19364 0.382577 0.730969
809 1 0.405482 0.459492 0.755805
914 1 0.452511 0.405724 0.657781
261 1 0.270721 0.357086 0.961192
920 1 0.27198 0.287183 0.86406
962 1 0.0900687 0.581448 0.862968
958 1 0.352802 0.499435 0.661961
479 1 0.394514 0.455118 0.972469
1277 1 0.0679575 0.761324 0.836893
1896 1 0.0908654 0.605229 0.713007
770 1 0.369068 0.714323 0.710603
1803 1 0.161505 0.723978 0.729831
1805 1 0.27163 0.658606 0.715166
1510 1 0.282246 0.721727 0.829996
1071 1 0.457631 0.596209 0.670038
212 1 0.317624 0.591765 0.710181
1442 1 0.151317 0.718039 0.638097
1377 1 0.228825 0.71805 0.684043
388 1 0.414981 0.688798 0.787191
167 1 0.210894 0.783876 0.630686
1328 1 0.293972 0.731377 0.748177
1135 1 0.0121399 0.747063 0.778598
1089 1 0.16468 0.807673 0.719959
1149 1 0.367714 0.799246 0.707485
564 1 0.43574 0.84464 0.73708
1182 1 0.214201 0.84688 0.673197
860 1 0.222995 0.943431 0.789888
439 1 0.309185 0.0100406 0.672198
1973 1 0.397374 0.0102475 0.686673
1326 1 0.278925 0.065361 0.719332
1719 1 0.399439 0.900137 0.825994
370 1 0.464286 0.614137 0.569889
645 1 0.120613 0.0589863 0.812584
1638 1 0.193385 0.910658 0.710598
1623 1 0.00739478 0.596612 0.738174
1177 1 0.110994 0.150064 0.789546
596 1 0.200348 0.0601922 0.767363
1869 1 0.301262 0.0521937 0.837915
1748 1 0.47524 0.768523 0.550647
217 1 0.143297 0.0969874 0.732413
8 1 0.430966 0.981773 0.835796
1143 1 0.419024 0.392372 0.562256
1385 1 0.159516 0.161516 0.695271
513 1 0.224766 0.204838 0.707267
695 1 0.344013 0.122985 0.728934
1801 1 0.41667 0.654005 0.627139
495 1 0.026951 0.297939 0.818997
1953 1 0.214052 0.246674 0.793173
1886 1 0.348606 0.179791 0.823047
1838 1 0.176748 0.276865 0.861318
925 1 0.387658 0.385824 0.708601
1880 1 0.413311 0.34492 0.800948
1170 1 0.139328 0.238901 0.939349
380 1 0.379996 0.247494 0.787543
814 1 0.303659 0.411277 0.641539
521 1 0.178647 0.46415 0.801488
1209 1 0.14062 0.307723 0.735616
1808 1 0.251368 0.398445 0.814936
1019 1 0.298543 0.381155 0.713649
426 1 0.208879 0.51442 0.915147
267 1 0.231077 0.368892 0.66766
757 1 0.261877 0.169288 0.992743
1011 1 0.432422 0.930002 0.965184
1383 1 0.214742 0.516035 0.741279
1909 1 0.347052 0.625279 0.831192
1250 1 0.166284 0.368745 0.961172
1288 1 0.30736 0.648282 0.935273
1043 1 0.491016 0.0384826 0.6872
2007 1 0.0774286 0.262657 0.88921
36 1 0.0408156 0.664133 0.743673
398 1 0.103244 0.627619 0.78674
20 1 0.383846 0.587637 0.970433
844 1 0.139588 0.694397 0.803801
1833 1 0.235419 0.706451 0.930236
1365 1 0.341306 0.661999 0.761889
1123 1 0.445837 0.77071 0.769288
1407 1 0.0830564 0.77005 0.723827
1306 1 0.350985 0.763443 0.789358
483 1 0.400421 0.824989 0.804437
873 1 0.192445 0.845627 0.79371
940 1 0.241434 0.791478 0.714859
145 1 0.322683 0.901445 0.825782
389 1 0.12094 0.09301 0.533053
1600 1 0.0981633 0.931797 0.71368
515 1 0.290821 0.810712 0.790746
1588 1 0.208078 0.925727 0.863468
1977 1 0.264374 0.0103188 0.7791
207 1 0.34294 0.865263 0.760471
1055 1 0.0339976 0.141275 0.782911
704 1 0.280723 0.965186 0.8552
457 1 0.302065 0.944372 0.748232
321 1 0.361974 0.0439614 0.892666
242 1 0.0710833 0.268015 0.763516
1573 1 0.0893583 0.13236 0.864043
269 1 0.430017 0.0566349 0.840566
181 1 0.372359 0.395553 0.841523
6 1 0.315563 0.140011 0.949435
1617 1 0.344323 0.0615055 0.976277
1820 1 0.0447742 0.211749 0.823706
1840 1 0.284569 0.11287 0.785922
59 1 0.349959 0.249027 0.859319
1663 1 0.0626836 0.0708079 0.762639
1691 1 0.294741 0.180553 0.753054
1827 1 0.416135 0.13521 0.842839
126 1 0.186059 0.179266 0.97352
1905 1 0.0782637 0.306496 0.683962
114 1 0.282764 0.254581 0.694873
108 1 0.402072 0.320158 0.874068
254 1 0.0993147 0.507748 0.988216
983 1 0.107431 0.315811 0.828446
1251 1 0.205822 0.307481 0.936166
1989 1 0.246201 0.166497 0.854766
197 1 0.414955 0.985848 0.542605
79 1 0.15189 0.457348 0.902413
113 1 0.268384 0.459931 0.770619
1731 1 0.404207 0.513121 0.824303