ITEM: TIMESTEP
100000
ITEM: NUMBER OF ATOMS
2048
ITEM: BOX BOUNDS pp pp pp
0.0000000000000000e+00 1.3679807573413575e+01
0.0000000000000000e+00 1.3679807573413575e+01
0.0000000000000000e+00 1.3679807573413575e+01
ITEM: ATOMS id type xs ys zs
773 1 0.599337 0.491099 0.0229358
1389 1 0.711587 0.0895906 0.388688
1273 1 0.871577 0.393085 0.240673
1407 1 0.956801 0.0109495 0.0219438
438 1 0.231307 0.0149549 0.0226938
2028 1 0.392614 0.196094 0.410447
747 1 0.775945 0.429273 0.0561399
442 1 0.176188 0.0030685 0.0809092
677 1 0.615259 0.499446 0.420435
1505 1 0.684962 0.197447 0.151434
1432 1 0.0789987 0.0323692 0.418983
1079 1 0.506784 0.11215 0.00361961
149 1 0.0418179 0.0573827 0.128033
40 1 0.735578 0.0571286 0.458005
813 1 0.431057 0.405594 0.316229
1145 1 0.289286 0.464263 0.403791
1579 1 0.855492 0.338439 0.134217
597 1 0.972163 0.13552 0.306067
1391 1 0.923382 0.241693 0.135759
1522 1 0.515095 0.444755 0.185462
441 1 0.852139 0.458811 0.314238
1777 1 0.738039 0.442739 0.214927
753 1 0.670239 0.459255 0.447808
1501 1 0.719687 0.00493848 0.0969546
1163 1 0.663087 0.280547 0.117154
533 1 0.97392 0.00680005 0.390164
1349 1 0.226983 0.334668 0.0400326
211 1 0.0781941 0.0429298 0.309527
291 1 0.689738 0.433305 0.0771669
870 1 0.563479 0.455741 0.405823
621 1 0.297234 0.0449127 0.189161
1034 1 0.539701 0.438355 0.0452079
1655 1 0.221993 0.170692 0.0735794
848 1 0.151479 0.501422 0.420517
565 1 0.52111 0.165392 0.129036
37 1 0.4225 0.459637 0.173311
1310 1 0.986362 0.228769 0.281148
1444 1 0.47112 0.0162815 0.421049
869 1 0.608705 0.1305 0.438361
224 1 0.882817 0.411063 0.368656
1098 1 0.843278 0.119986 0.352806
1024 1 0.6632 0.415414 0.162027
1067 1 0.306272 0.401268 0.367673
1380 1 0.172516 0.395252 0.434582
1445 1 0.419651 0.0226454 0.358458
1787 1 0.763721 0.489936 0.39492
151 1 0.34633 0.404304 0.295836
725 1 0.984737 0.285127 0.0729746
1571 1 0.203965 0.302067 0.108326
808 1 0.0408044 0.20006 0.103398
1076 1 0.710656 0.358139 0.0437352
1682 1 0.379603 0.353294 0.3286
1184 1 0.880303 0.0289177 0.0419123
1189 1 0.783175 0.0501623 0.0886529
2017 1 0.919698 0.37933 0.17736
846 1 0.475292 0.190063 0.349717
704 1 0.175826 0.261157 0.488822
401 1 0.432432 0.0234635 0.124931
365 1 0.513357 0.38184 0.405689
328 1 0.588499 0.0779093 0.258769
757 1 0.674886 0.468378 0.0178399
1421 1 0.296741 0.461548 0.33138
443 1 0.649174 0.025314 0.139937
737 1 0.141804 0.0704579 0.0702838
1691 1 0.896048 0.459894 0.230092
1354 1 0.606846 0.446429 0.0763039
1778 1 0.503914 0.226141 0.495771
197 1 0.00671399 0.278437 0.368795
836 1 0.355884 0.428932 0.127955
233 1 0.0209052 0.351813 0.496398
1932 1 0.228378 0.169222 0.299622
1267 1 0.155336 0.195056 0.26449
1102 1 0.840256 0.474798 0.49596
680 1 0.865338 0.217557 0.439378
540 1 0.514848 0.324466 0.0217701
315 1 0.72114 0.0737607 0.0378024
515 1 0.0960354 0.466196 0.0337563
437 1 0.237213 0.129536 0.19832
734 1 0.777656 0.0445236 0.226815
527 1 0.426474 0.0785431 0.407004
1 1 0.129457 0.425133 0.154916
84 1 0.0475441 0.102784 0.0410133
690 1 0.65396 0.210652 0.0776676
997 1 0.525527 0.294454 0.0924107
828 1 0.493115 0.465238 0.0927897
1833 1 0.765972 0.177384 0.0977233
1516 1 0.0199226 0.27625 0.140194
1629 1 0.35788 0.447582 0.445723
207 1 0.350562 0.270038 0.0701866
1651 1 0.697967 0.152888 0.0869938
108 1 0.271806 0.157593 0.00682219
1118 1 0.54699 0.253881 0.030952
1622 1 0.762779 0.232364 0.0319073
2033 1 0.0625432 0.353062 0.296173
1734 1 0.0974788 0.49207 0.186409
1659 1 0.360606 0.35878 0.151814
1140 1 0.6246 0.256354 0.182888
979 1 0.736018 0.423238 0.132448
971 1 0.164149 0.057005 0.47594
1293 1 0.797064 0.210195 0.329979
1980 1 0.683298 0.104799 0.459104
196 1 0.697013 0.431443 0.272117
595 1 0.2206 0.153242 0.493599
1452 1 0.839899 0.0881829 0.420013
1831 1 0.359441 0.460669 0.376889
530 1 0.842625 0.286065 0.332406
2012 1 0.286076 0.0838657 0.0424486
2005 1 0.802126 0.0185192 0.470546
837 1 0.483067 0.120889 0.409434
569 1 0.735544 0.300981 0.1084
1654 1 0.803848 0.388832 0.448435
129 1 0.940965 0.146839 0.477702
195 1 0.425647 0.335521 0.181901
451 1 0.470729 0.209444 0.188906
1302 1 0.559131 0.114337 0.0957244
1013 1 0.326758 0.497964 0.114752
1198 1 0.348077 0.197855 0.199298
1949 1 0.624475 0.339374 0.0117469
490 1 0.709339 0.0428324 0.248793
1355 1 0.814709 0.113176 0.0864855
1687 1 0.995636 0.169234 0.052644
1758 1 0.0421124 0.308625 0.200134
1324 1 0.437017 0.178153 0.0989613
1438 1 0.00120747 0.0436658 0.0630995
842 1 0.861397 0.317525 0.0579143
508 1 0.411955 0.230666 0.0394639
325 1 0.369526 0.252424 0.248307
759 1 0.233884 0.0720708 0.0951743
1207 1 0.580273 0.141022 0.0186219
635 1 0.116917 0.123024 0.273717
1955 1 0.0391365 0.148318 0.16469
1706 1 0.122357 0.185463 0.134911
199 1 0.910291 0.458008 0.0956842
835 1 0.692751 0.497622 0.162459
157 1 0.485124 0.271919 0.150482
612 1 0.656037 0.368866 0.110582
2031 1 0.276847 0.42185 0.130829
284 1 0.394881 0.309174 0.0330268
1103 1 0.521486 0.00879117 0.117355
1905 1 0.711834 0.0772324 0.132853
964 1 0.829227 0.253404 0.225169
882 1 0.913041 0.441642 0.496261
832 1 0.42919 0.457561 0.483918
1483 1 0.19707 0.396227 0.203482
1397 1 0.303059 0.276303 0.228911
587 1 0.218244 0.0480661 0.174665
1805 1 0.902425 0.0140389 0.186526
1069 1 0.271979 0.237223 0.499004
716 1 0.761877 0.499123 0.014644
1880 1 0.886746 0.317926 0.196092
1652 1 0.928856 0.206814 0.244753
756 1 0.415698 0.144204 0.01939
624 1 0.962572 0.168805 0.171758
1211 1 0.804612 0.10431 0.29696
1934 1 0.801249 0.169891 0.0203703
886 1 0.808841 0.165189 0.397534
173 1 0.594985 0.00464437 0.276244
1951 1 0.65608 0.404019 0.00484701
1536 1 0.694012 0.318556 0.340718
1249 1 0.611747 0.2318 0.0236078
1143 1 0.408115 0.0897939 0.0927043
1723 1 0.0818543 0.229113 0.274575
1749 1 0.65639 0.166449 0.0212256
781 1 0.780676 0.48887 0.111362
873 1 0.58488 0.0340837 0.191552
1106 1 0.837804 0.0135921 0.404992
1353 1 0.380689 0.0801644 0.24565
1413 1 0.809653 0.0114909 0.031579
539 1 0.105154 0.271489 0.181586
1983 1 0.0858081 0.119576 0.212105
1288 1 0.50702 0.389049 0.324434
1824 1 0.483471 0.460984 0.335091
993 1 0.910968 0.337495 0.331883
1977 1 0.152732 0.155061 0.201443
308 1 0.620196 0.163831 0.145882
1888 1 0.641624 0.101899 0.0644583
1047 1 0.944558 0.228612 0.023438
826 1 0.201096 0.243064 0.150988
1662 1 0.339843 0.194535 0.0446237
918 1 0.463463 0.136863 0.187122
406 1 0.681003 0.115034 0.312713
880 1 0.359141 0.0861736 0.040956
354 1 0.695047 0.325824 0.41946
246 1 0.172265 0.105243 0.145886
1919 1 0.2581 0.231222 0.108351
1177 1 0.893855 0.0200344 0.463511
377 1 0.660258 0.124154 0.245348
148 1 0.253529 0.413372 0.0214332
1764 1 0.512803 0.481882 0.255929
1684 1 0.511161 0.374096 0.0832176
1167 1 0.660443 0.295813 0.246305
1399 1 0.593539 0.305364 0.0910095
827 1 0.791216 0.413769 0.377215
919 1 0.930821 0.430837 0.308165
299 1 0.241072 0.412337 0.450554
1410 1 0.318034 0.29788 0.143701
448 1 0.571364 0.272385 0.278108
366 1 0.575864 0.215322 0.111256
399 1 0.782009 0.0887013 0.148912
535 1 0.343727 0.425493 0.198693
42 1 0.598374 0.328975 0.173081
1643 1 0.0663357 0.465031 0.35486
1040 1 0.425101 0.0500164 0.478249
911 1 0.896108 0.384615 0.442367
398 1 0.628088 0.312256 0.309895
1172 1 0.0492089 0.171794 0.242789
503 1 0.355477 0.085392 0.333479
1890 1 0.0548714 0.402523 0.0562682
1348 1 0.0104094 0.0845734 0.494796
303 1 0.586576 0.37742 0.0620219
1995 1 0.829886 0.44981 0.432764
536 1 0.520382 0.0743358 0.155658
1456 1 0.742393 0.273783 0.387259
1600 1 0.189299 0.401561 0.127453
1379 1 0.517401 0.0950687 0.259141
1784 1 0.562271 0.486026 0.141796
7 1 0.490531 0.12138 0.0762847
1530 1 0.0223658 0.0538661 0.36209
1792 1 0.583653 0.117606 0.1992
656 1 0.431784 0.439849 0.0479523
1063 1 0.43968 0.27974 0.222362
51 1 0.732685 0.118428 0.265439
390 1 0.750993 0.16113 0.166547
1124 1 0.80594 0.134343 0.202231
1904 1 0.495358 0.0319487 0.0532615
1705 1 0.00373031 0.404099 0.197349
1911 1 0.071324 0.315328 0.0944209
779 1 0.255205 0.30464 0.171983
1044 1 0.364319 0.0402776 0.163277
235 1 0.442686 0.300178 0.296814
1607 1 0.580132 0.390466 0.144036
1594 1 0.520901 0.343573 0.188251
193 1 0.935068 0.0835592 0.22417
28 1 0.975312 0.330399 0.414206
79 1 0.387157 0.288648 0.352993
1671 1 0.254034 0.489632 0.276643
1841 1 0.505729 0.309476 0.251583
1023 1 0.656812 0.233824 0.480908
634 1 0.26972 0.210168 0.172354
950 1 0.779176 0.0810487 0.365401
1382 1 0.70267 0.00654699 0.407376
180 1 0.211591 0.476329 0.207925
1543 1 0.761838 0.364852 0.154179
143 1 0.979357 0.314471 0.30422
150 1 0.274527 0.150751 0.139271
2045 1 0.259704 0.426714 0.230505
449 1 0.858434 0.2479 0.0651336
178 1 0.165384 0.0791916 0.31116
1946 1 0.518371 0.0202736 0.254184
994 1 0.864255 0.324333 0.279166
102 1 0.969746 0.253158 0.191555
1042 1 0.330614 0.148641 0.418348
1454 1 0.928881 0.319914 0.106713
519 1 0.756252 0.230757 0.17186
194 1 0.832634 0.185751 0.247497
269 1 0.205369 0.201266 0.354129
135 1 0.119896 0.263697 0.0394087
921 1 0.5837 0.0501947 0.118912
1001 1 0.892069 0.154158 0.42804
1854 1 0.877563 0.111874 0.187891
1553 1 0.26295 0.356252 0.110597
1850 1 0.761319 0.35426 0.402187
907 1 0.90767 0.172348 0.0994864
862 1 0.355862 0.0622064 0.448045
1082 1 0.0161575 0.0849335 0.20316
1468 1 0.370271 0.233808 0.133798
1351 1 0.277536 0.156322 0.355153
816 1 0.411216 0.300359 0.123373
403 1 0.0378664 0.107026 0.300657
705 1 0.0868027 0.313169 0.358706
1128 1 0.259142 0.20586 0.436714
427 1 0.328442 0.113214 0.196482
752 1 0.543971 0.148217 0.461925
1004 1 0.434187 0.0460232 0.206401
1818 1 0.879871 0.0127325 0.116829
1455 1 0.665033 0.00790946 0.0502899
1863 1 0.138396 0.162989 0.413467
1959 1 0.0283348 0.181236 0.316956
683 1 0.340322 0.0212802 0.0802
1851 1 0.628821 0.218761 0.414042
1534 1 0.317552 0.224941 0.35399
281 1 0.377052 0.488869 0.215018
300 1 0.954189 0.0879392 0.388518
903 1 0.852859 0.0758847 0.254548
1109 1 0.930553 0.472929 0.369875
1409 1 0.140115 0.332312 0.204001
1994 1 0.0203163 0.342356 0.0317435
898 1 0.123698 0.489124 0.330469
1321 1 0.774632 0.248295 0.443175
667 1 0.0518478 0.390793 0.419597
577 1 0.145186 0.319298 0.424082
1556 1 0.952416 0.400137 0.112582
418 1 0.922505 0.360408 0.0402164
491 1 0.463679 0.281765 0.446779
76 1 0.55128 0.22875 0.399432
1531 1 0.415939 0.340372 0.418147
1838 1 0.655404 0.100381 0.175889
1146 1 0.753497 0.486142 0.472116
767 1 0.83305 0.345373 0.387725
23 1 0.723297 0.406321 0.444388
1602 1 0.823912 0.363339 0.00572642
1149 1 0.326678 0.350267 0.0755135
751 1 0.364329 0.36373 0.237209
740 1 0.545733 0.37468 0.471521
105 1 0.830086 0.407072 0.157394
1464 1 0.975412 0.0993033 0.00576253
696 1 0.107272 0.3479 0.145439
962 1 0.324534 0.196496 0.476526
1827 1 0.105173 0.0482812 0.235149
799 1 0.646856 0.384336 0.471952
1192 1 0.14427 0.0194067 0.0178947
688 1 0.452727 0.285928 0.0660477
1632 1 0.955815 0.0507848 0.451246
858 1 0.114975 0.242745 0.346611
1845 1 0.721792 0.0505283 0.320345
330 1 0.410102 0.360648 0.0815832
187 1 0.462916 0.195881 0.00628277
1889 1 0.435871 0.0749308 0.305981
217 1 0.394787 0.099564 0.176134
234 1 0.072887 0.194557 0.0273457
242 1 0.527295 0.091002 0.356268
1037 1 0.921148 0.182685 0.353363
317 1 0.750613 0.144304 0.333243
126 1 0.217104 0.264437 0.304909
44 1 0.308883 0.0839184 0.271
1317 1 0.0166015 0.123361 0.37135
358 1 0.00956692 0.17322 0.460301
306 1 0.231841 0.254178 0.232348
1906 1 0.370316 0.159378 0.11892
2001 1 0.538566 0.16838 0.230931
1839 1 0.554292 0.334352 0.327584
961 1 0.772886 0.334535 0.332809
382 1 0.694705 0.218598 0.363994
605 1 0.930155 0.0698412 0.299556
1474 1 0.154459 0.263492 0.233808
262 1 0.490651 0.225227 0.0922185
1245 1 0.580054 0.148951 0.364166
1917 1 0.420558 0.204642 0.258283
447 1 0.969345 0.098808 0.144149
1129 1 0.0910977 0.112295 0.139064
1677 1 0.285067 0.275482 0.437518
175 1 0.312332 0.27169 0.306151
1756 1 0.692518 0.332696 0.162262
311 1 0.00598639 0.255111 0.438264
386 1 0.00071437 0.345914 0.238754
958 1 0.0676341 0.378218 0.216548
1617 1 0.293082 0.371175 0.186518
1257 1 0.203174 0.0782546 0.0274283
484 1 0.462305 0.255208 0.351432
1214 1 0.858825 0.0776783 0.126468
259 1 0.470771 0.354401 0.468089
654 1 0.880707 0.170623 0.0349219
892 1 0.127048 0.26711 0.113963
1403 1 0.297374 0.357211 0.258282
652 1 0.218794 0.467642 0.409092
1008 1 0.191428 0.105538 0.429859
787 1 0.9857 0.417189 0.443529
1918 1 0.867997 0.092053 0.00595308
931 1 0.214289 0.407043 0.363992
2002 1 0.980738 0.337828 0.149142
586 1 0.115706 0.16639 0.340223
225 1 0.988295 0.390462 0.318512
1260 1 0.584448 0.0490861 0.0449612
941 1 0.779341 0.301535 0.0389577
598 1 0.609081 0.476808 0.488325
1116 1 0.274595 0.0831965 0.386752
1698 1 0.310698 0.0825919 0.109817
1789 1 0.955211 0.399819 0.252936
1178 1 0.0566815 0.317104 0.426051
720 1 0.257946 0.0230606 0.242141
1935 1 0.32926 0.144259 0.309172
1480 1 0.980087 0.464366 0.155463
749 1 0.318382 0.0130261 0.384726
561 1 0.147078 0.188592 0.0335586
1059 1 0.614551 0.41946 0.35631
160 1 0.386441 0.467609 0.293458
1228 1 0.108858 0.411332 0.322738
1804 1 0.0988718 0.276735 0.475153
1991 1 0.324819 0.319991 0.372008
556 1 0.299295 0.209811 0.250833
1549 1 0.508517 0.240208 0.28948
831 1 0.627279 0.160702 0.29548
1323 1 0.885265 0.139217 0.285501
908 1 0.758438 0.198827 0.253537
1582 1 0.0413823 0.286421 0.29682
1332 1 0.274725 0.24571 0.0429414
1987 1 0.463645 0.148615 0.268861
573 1 0.564217 0.00887953 0.49833
1641 1 0.797573 0.313366 0.267863
934 1 0.889581 0.258023 0.294318
1860 1 0.821086 0.25629 0.150445
65 1 0.0318624 0.420725 0.125532
1127 1 0.174592 0.457596 0.288096
960 1 0.233043 0.330123 0.235701
1808 1 0.823649 0.392978 0.307804
1277 1 0.257166 0.345496 0.352988
541 1 0.673271 0.364387 0.284839
2039 1 0.71735 0.254242 0.291612
2038 1 0.712019 0.211346 0.436079
1280 1 0.561746 0.452959 0.332052
404 1 0.288016 0.0529266 0.48378
1068 1 0.523507 0.395791 0.257051
288 1 0.367683 0.389578 0.398092
1527 1 0.182677 0.401176 0.029833
67 1 0.778447 0.446379 0.306196
289 1 0.406044 0.424147 0.236416
118 1 0.0534645 0.118342 0.435222
444 1 0.446989 0.362249 0.247143
609 1 0.667919 0.0394068 0.495699
1182 1 0.434567 0.0693633 0.0202379
1190 1 0.181764 0.477461 0.137386
1692 1 0.610811 0.251424 0.349958
563 1 0.0583569 0.220599 0.18043
1173 1 0.976456 0.0148199 0.205687
603 1 0.0188632 0.0137885 0.26014
1291 1 0.219884 0.323273 0.411896
171 1 0.295382 0.478053 0.180519
849 1 0.255902 0.0930233 0.320289
593 1 0.127427 0.363092 0.0774698
721 1 0.169569 0.25148 0.415896
830 1 0.418966 0.142979 0.365355
2047 1 0.494436 0.479105 0.422901
978 1 0.0818649 0.470424 0.434653
1718 1 0.463079 0.205272 0.432936
798 1 0.38662 0.147223 0.226766
1205 1 0.686831 0.385007 0.37319
1517 1 0.642847 0.484771 0.341675
381 1 0.793666 0.187337 0.47316
1130 1 0.0335331 0.474663 0.0721985
227 1 0.205883 0.171013 0.145725
1847 1 0.131178 0.364195 0.274962
470 1 0.564276 0.206442 0.322347
1733 1 0.633601 0.0364934 0.416601
117 1 0.840384 0.422863 0.0908091
440 1 0.443013 0.427546 0.409161
1663 1 0.771157 0.114093 0.441607
1709 1 0.990093 0.199543 0.378935
190 1 0.934268 0.329555 0.477836
1658 1 0.0808043 0.0108031 0.0521904
130 1 0.387142 0.272038 0.422
1003 1 0.611238 0.17621 0.22594
1420 1 0.121962 0.0315584 0.158689
380 1 0.948151 0.225876 0.477313
560 1 0.755635 0.372635 0.266052
91 1 0.427378 0.145938 0.450327
1112 1 0.724203 0.437625 0.34851
2023 1 0.684185 0.212264 0.219353
1465 1 0.393643 0.385957 0.472342
1487 1 0.753841 0.31527 0.472894
613 1 0.00985535 0.449127 0.266888
352 1 0.60523 0.315579 0.382473
1815 1 0.823024 0.343267 0.209682
1213 1 0.849302 0.477338 0.143869
959 1 0.198097 0.0931901 0.242791
1700 1 0.955868 0.0193128 0.108366
1862 1 0.356939 0.417952 0.0449812
771 1 0.552904 0.30774 0.432902
684 1 0.861161 0.216152 0.364975
181 1 0.605506 0.412999 0.284411
1300 1 0.609929 0.390263 0.209232
551 1 0.313803 0.357296 0.454417
1373 1 0.836632 0.0411921 0.183852
1122 1 0.690554 0.376802 0.218778
1913 1 0.415746 0.236927 0.481695
1746 1 0.579152 0.469029 0.242204
726 1 0.529085 0.0551621 0.414049
1259 1 0.17723 0.130844 0.358037
896 1 0.866039 0.292648 0.471691
1166 1 0.826834 0.163008 0.141522
1961 1 0.797307 0.364657 0.0869655
1056 1 0.891777 0.179074 0.172199
1821 1 0.540277 0.262209 0.211616
986 1 0.492342 0.0725996 0.477615
278 1 0.682151 0.291759 0.0374725
691 1 0.94097 0.293715 0.246646
1601 1 0.22843 0.484801 0.0782756
228 1 0.0674033 0.191512 0.407591
1241 1 0.15423 0.331345 0.333958
2011 1 0.207175 0.365269 0.300284
1472 1 0.464011 0.36923 0.00169737
606 1 0.376534 0.205113 0.318716
1564 1 0.208537 0.241861 0.0634873
1533 1 0.1507 0.0560336 0.397733
297 1 0.257421 0.261095 0.364944
1021 1 0.116976 0.113777 0.493783
210 1 0.624108 0.089083 0.36799
1048 1 0.953135 0.395537 0.381138
883 1 0.870103 0.0404137 0.318569
574 1 0.313875 0.323036 0.00731993
1558 1 0.120449 0.405103 0.481132
949 1 0.921043 0.084154 0.0912233
1218 1 0.124853 0.448703 0.235953
512 1 0.480832 0.320653 0.38219
1236 1 0.534251 0.185446 0.0476742
1029 1 0.936402 0.272062 0.389954
1970 1 0.217522 0.0387722 0.36546
1735 1 0.660267 0.144881 0.387964
2032 1 0.0502552 0.253703 0.0586312
893 1 0.918976 0.46424 0.0230139
794 1 0.63911 0.298024 0.454039
778 1 0.574221 0.0349479 0.3436
694 1 0.994579 0.487425 0.4428
1532 1 0.193012 0.464348 0.484475
136 1 0.212544 0.0350947 0.431441
424 1 0.227316 0.487572 0.341858
1731 1 0.597602 0.384293 0.417858
164 1 0.906629 0.029724 0.375864
1608 1 0.498788 0.423505 0.482763
198 1 0.71441 0.497559 0.312736
100 1 0.838349 0.444889 0.0259621
286 1 0.598144 0.0792924 0.493795
1560 1 0.575691 0.213661 0.474297
1774 1 0.999656 0.48834 0.336584
1175 1 0.488702 0.0154891 0.338364
1975 1 0.272287 0.00221004 0.126267
1640 1 0.418799 0.499386 0.383293
1539 1 0.275342 0.00400841 0.440207
982 1 0.113016 0.369698 0.00819714
1870 1 0.358966 0.0203878 0.875491
1070 1 0.932906 0.270823 0.9688
223 1 0.555928 0.419334 0.930536
639 1 0.825595 0.334888 0.52641
1378 1 0.948638 0.0528655 0.624455
1412 1 0.404495 0.487761 0.916335
61 1 0.337673 0.438877 0.587023
327 1 0.441343 0.100896 0.520279
192 1 0.748558 0.0959938 0.517819
1078 1 0.842389 0.0195605 0.664396
1667 1 0.340918 0.329527 0.605296
1886 1 0.730831 0.271889 0.98522
357 1 0.323374 0.399937 0.98345
66 1 0.483999 0.461746 0.652354
487 1 0.809413 0.0123083 0.843922
1830 1 0.817192 0.475161 0.849825
614 1 0.512958 0.247661 0.573996
812 1 0.577972 0.285374 0.599494
592 1 0.16415 0.468951 0.909408
1049 1 0.718943 0.0694698 0.574451
1676 1 0.69271 0.314824 0.689887
1191 1 0.530668 0.36506 0.664896
1417 1 0.284133 0.211423 0.632467
1960 1 0.11091 0.414309 0.616065
75 1 0.865604 0.321729 0.863172
985 1 0.78798 0.433537 0.519162
981 1 0.847581 0.249994 0.757085
1673 1 0.280375 0.18733 0.714929
736 1 0.80565 0.194298 0.708979
1242 1 0.625879 0.299961 0.542964
1233 1 0.80452 0.376265 0.716236
15 1 0.129692 0.34007 0.65137
1467 1 0.209647 0.205431 0.994318
1366 1 0.297119 0.265493 0.569311
88 1 0.919583 0.199042 0.852623
646 1 0.300276 0.180459 0.940017
1992 1 0.763586 0.362479 0.654639
682 1 0.0924972 0.491694 0.907367
1451 1 0.0187776 0.0416085 0.987368
201 1 0.969237 0.448564 0.94244
928 1 0.557001 0.0239307 0.954263
1361 1 0.0310944 0.240964 0.703747
611 1 0.0140392 0.288622 0.652736
2029 1 0.0594666 0.361811 0.772116
73 1 0.618938 0.217523 0.620328
279 1 0.938374 0.128613 0.571461
570 1 0.876463 0.154934 0.599216
1665 1 0.0955315 0.0500393 0.973385
17 1 0.879809 0.0231016 0.902214
321 1 0.331151 0.244669 0.983277
1204 1 0.160964 0.0534634 0.614345
1953 1 0.419668 0.439014 0.731674
616 1 0.585765 0.338117 0.897812
1611 1 0.32878 0.341746 0.915748
186 1 0.0906174 0.0891539 0.653933
1367 1 0.211484 0.0641347 0.779487
1055 1 0.0607495 0.110199 0.545411
10 1 0.118309 0.109341 0.777662
1065 1 0.297342 0.112619 0.590817
963 1 0.83779 0.361557 0.656093
1791 1 0.208193 0.096083 0.54908
1967 1 0.139519 0.12937 0.566934
1653 1 0.916746 0.333758 0.935199
1319 1 0.618984 0.40643 0.802419
663 1 0.768712 0.0981089 0.774059
208 1 0.0201337 0.306896 0.729192
998 1 0.737643 0.110127 0.630347
218 1 0.22849 0.463789 0.868636
1120 1 0.345108 0.217138 0.724776
1119 1 0.355358 0.0927735 0.511437
871 1 0.444898 0.368833 0.730537
1896 1 0.228658 0.399971 0.83452
168 1 0.77108 0.193331 0.639061
1613 1 0.686522 0.278366 0.57595
379 1 0.921534 0.276984 0.51935
457 1 0.694503 0.144813 0.522186
1736 1 0.227079 0.357837 0.713066
467 1 0.816607 0.139305 0.65868
290 1 0.415068 0.189599 0.552478
1515 1 0.431058 0.267956 0.583349
2030 1 0.0028293 0.179328 0.81246
200 1 0.87067 0.19946 0.506359
1393 1 0.868856 0.28674 0.694803
1295 1 0.689442 0.454942 0.76688
660 1 0.744149 0.459184 0.867204
1459 1 0.0149956 0.481692 0.777659
651 1 0.945459 0.425394 0.872841
1174 1 0.857154 0.47872 0.70851
1957 1 0.488693 0.186112 0.554612
2046 1 0.572335 0.238382 0.541136
1813 1 0.571662 0.45727 0.78717
1453 1 0.0785619 0.328987 0.572241
987 1 0.467297 0.210014 0.624556
1940 1 0.485396 0.310797 0.531036
56 1 0.730642 0.48303 0.947321
1095 1 0.85569 0.151793 0.96834
1518 1 0.61445 0.2706 0.71977
754 1 0.0525474 0.368657 0.625086
1220 1 0.596199 0.0735728 0.976998
1636 1 0.926605 0.0194069 0.84009
924 1 0.780568 0.261646 0.673532
20 1 0.0751885 0.0509103 0.716557
392 1 0.291117 0.106811 0.730079
156 1 0.347503 0.088509 0.777138
96 1 0.366731 0.137309 0.727883
620 1 0.900482 0.474591 0.85896
1051 1 0.629751 0.147301 0.576098
572 1 0.174386 0.0194557 0.845068
2024 1 0.103235 0.27712 0.641143
298 1 0.438592 0.0195753 0.603309
698 1 0.570015 0.0207931 0.694869
419 1 0.733024 0.220298 0.555224
416 1 0.866956 0.158363 0.721586
2027 1 0.795514 0.273271 0.608435
1058 1 0.696474 0.293344 0.505987
172 1 0.818256 0.398069 0.860468
895 1 0.334489 0.176228 0.549553
1859 1 0.437096 0.125184 0.730712
270 1 0.641627 0.144983 0.660012
122 1 0.506748 0.122581 0.795263
1954 1 0.210815 0.179657 0.659343
459 1 0.726924 0.336005 0.845949
2 1 0.509965 0.277296 0.641084
666 1 0.719347 0.377696 0.716812
430 1 0.177242 0.235505 0.92202
857 1 0.947253 0.283047 0.591464
1423 1 0.329751 0.37244 0.664129
258 1 0.300556 0.0120744 0.588508
1799 1 0.352652 0.479002 0.73985
1979 1 0.979783 0.421354 0.515974
323 1 0.548754 0.497937 0.717946
1657 1 0.857631 0.321447 0.791476
1252 1 0.893459 0.357286 0.604466
988 1 0.55457 0.312641 0.523847
68 1 0.907269 0.0895284 0.94883
113 1 0.26104 0.41908 0.766893
1686 1 0.412818 0.299037 0.739424
549 1 0.700174 0.390571 0.636692
967 1 0.350573 0.152384 0.991423
90 1 0.0162249 0.293453 0.543297
582 1 0.386304 0.148356 0.921732
944 1 0.654065 0.0520358 0.653226
2013 1 0.234619 0.0539985 0.709308
1495 1 0.0912675 0.0364194 0.503524
415 1 0.176773 0.330395 0.83699
1133 1 0.17814 0.0271263 0.54645
2026 1 0.833884 0.122519 0.507183
618 1 0.242301 0.0637955 0.608307
1419 1 0.939892 0.491272 0.726229
123 1 0.109883 0.185294 0.515431
1848 1 0.461413 0.273816 0.990465
1907 1 0.988742 0.103965 0.937533
1093 1 0.485193 0.392774 0.557422
431 1 0.981682 0.492022 0.846206
1183 1 0.215528 0.128032 0.97409
1817 1 0.129919 0.121862 0.996887
147 1 0.225459 0.248008 0.709738
1019 1 0.933069 0.200799 0.558892
367 1 0.0424175 0.122441 0.699114
18 1 0.299265 0.474837 0.868345
318 1 0.557674 0.136239 0.559626
174 1 0.981109 0.227241 0.61945
1637 1 0.13185 0.0833057 0.907386
731 1 0.287448 0.0226168 0.66964
1231 1 0.552614 0.0445029 0.619202
1962 1 0.703015 0.0718271 0.726116
1660 1 0.907874 0.0611881 0.680679
658 1 0.756039 0.458265 0.729272
500 1 0.963795 0.0861555 0.714842
1384 1 0.322697 0.0233703 0.735841
728 1 0.0786731 0.261062 0.796044
248 1 0.108945 0.429705 0.859966
1683 1 0.379845 0.0389378 0.636905
559 1 0.640658 0.386066 0.68937
1115 1 0.776705 0.220661 0.871067
1170 1 0.972208 0.198271 0.692445
789 1 0.16864 0.241495 0.654647
1155 1 0.117251 0.256918 0.543091
829 1 0.549013 0.199529 0.607967
1304 1 0.59097 0.329461 0.668228
897 1 0.0529334 0.0273833 0.621972
1054 1 0.186536 0.480471 0.603128
948 1 0.523396 0.0720305 0.54048
1015 1 0.638485 0.275629 0.653745
953 1 0.997547 0.257748 0.788352
1450 1 0.269929 0.387509 0.593675
360 1 0.326369 0.163192 0.793715
434 1 0.431027 0.157649 0.664832
1942 1 0.707338 0.252568 0.743611
566 1 0.566194 0.165577 0.721753
1206 1 0.653314 0.0138898 0.594627
839 1 0.00348875 0.160531 0.884459
1514 1 0.436633 0.258067 0.907404
343 1 0.149419 0.176633 0.949293
471 1 0.837478 0.427036 0.629041
30 1 0.540315 0.356426 0.580845
124 1 0.743079 0.390527 0.898287
1609 1 0.119172 0.444505 0.687908
1375 1 0.0645412 0.429452 0.530149
1156 1 0.78385 0.0853924 0.998008
1773 1 0.191681 0.376564 0.904136
1159 1 0.982308 0.169336 0.974455
840 1 0.727188 0.500542 0.638458
479 1 0.946648 0.12993 0.856143
1672 1 0.0970792 0.321283 0.72742
641 1 0.0601951 0.470284 0.640838
1292 1 0.0138371 0.224991 0.511225
1621 1 0.133396 0.340643 0.502766
252 1 0.381702 0.465896 0.849108
800 1 0.263704 0.00548243 0.835146
1873 1 0.308676 0.0723975 0.881168
1887 1 0.740816 0.148494 0.71553
1930 1 0.543987 0.180995 0.975264
241 1 0.709781 0.171764 0.783855
692 1 0.998526 0.316912 0.954311
1121 1 0.546956 0.435954 0.536906
1885 1 0.0183003 0.0729586 0.765612
1590 1 0.86711 0.175087 0.81007
170 1 0.0546547 0.0561897 0.900393
1387 1 0.51334 0.123076 0.714055
859 1 0.905911 0.1666 0.661137
468 1 0.979408 0.348505 0.613587
711 1 0.322057 0.447099 0.514227
1297 1 0.698516 0.384625 0.79951
391 1 0.115743 0.377548 0.813215
801 1 0.859462 0.220869 0.646187
165 1 0.217074 0.232357 0.784843
1893 1 0.147558 0.281289 0.77433
1377 1 0.911352 0.426219 0.776656
700 1 0.148876 0.129979 0.634799
990 1 0.853703 0.44175 0.901368
1586 1 0.711244 0.00102521 0.656461
2000 1 0.551198 0.270162 0.76108
782 1 0.68774 0.318532 0.765276
97 1 0.586297 0.0931567 0.727237
602 1 0.658015 0.253465 0.973009
861 1 0.721726 0.248688 0.634339
702 1 0.375046 0.133719 0.621474
1783 1 0.179637 0.46905 0.781725
275 1 0.520451 0.325037 0.824095
1843 1 0.45226 0.260569 0.684045
543 1 0.806787 0.464145 0.950493
1869 1 0.211141 0.310722 0.766151
482 1 0.821728 0.255132 0.520022
1996 1 0.314772 0.337057 0.727558
16 1 0.429619 0.465245 0.595818
1822 1 0.50908 0.381417 0.782236
350 1 0.206393 0.381444 0.637678
1619 1 0.403204 0.379673 0.967675
1748 1 0.903729 0.372489 0.525023
1952 1 0.0708439 0.077776 0.826178
214 1 0.912754 0.261934 0.80874
975 1 0.664705 0.491441 0.583264
834 1 0.406689 0.446797 0.970735
629 1 0.182932 0.140278 0.801248
762 1 0.385595 0.0255957 0.7955
638 1 0.619202 0.463411 0.962111
1343 1 0.911675 0.469486 0.666587
2004 1 0.97713 0.0767205 0.821588
12 1 0.461121 0.350359 0.659749
1832 1 0.596132 0.458615 0.590283
965 1 0.267741 0.0941862 0.935314
1475 1 0.837946 0.0913254 0.722064
1215 1 0.262066 0.175615 0.812523
1866 1 0.247931 0.433155 0.531912
95 1 0.458556 0.00392284 0.52005
263 1 0.92748 0.285342 0.873309
495 1 0.569131 0.297793 0.974162
472 1 0.988134 0.381271 0.912972
60 1 0.382073 0.199148 0.862761
890 1 0.525503 0.191475 0.794214
1624 1 0.410921 0.36221 0.594645
797 1 0.926235 0.298453 0.737836
1809 1 0.547622 0.128636 0.642729
1976 1 0.230012 0.137281 0.741971
589 1 0.411993 0.0573396 0.702777
1912 1 0.756101 0.240931 0.791593
397 1 0.800982 0.182946 0.783484
112 1 0.0710973 0.37247 0.89102
1836 1 0.300942 0.284948 0.662263
310 1 0.73152 0.0512974 0.960025
6 1 0.160314 0.200511 0.572984
1281 1 0.503672 0.0437122 0.713021
713 1 0.658691 0.0348316 0.985167
748 1 0.222864 0.306959 0.579278
2014 1 0.0998872 0.180925 0.662121
891 1 0.130903 0.202474 0.744718
1583 1 0.934449 0.477705 0.566763
1969 1 0.575688 0.245066 0.664062
1950 1 0.84868 0.029705 0.973775
1223 1 0.239739 0.107975 0.666926
926 1 0.58565 0.332289 0.774747
1842 1 0.668681 0.454853 0.845755
1357 1 0.740388 0.325612 0.602125
585 1 0.0663721 0.310892 0.95891
1587 1 0.262636 0.476409 0.984547
1807 1 0.454105 0.304502 0.814406
1441 1 0.871979 0.22172 0.972184
1262 1 0.0662228 0.459085 0.968175
1577 1 0.49091 0.439558 0.906884
1294 1 0.289476 0.429588 0.923267
1742 1 0.507851 0.0835837 0.855892
1404 1 0.891855 0.0687208 0.517208
902 1 0.45546 0.1742 0.805649
1650 1 0.754723 0.434191 0.799918
647 1 0.027421 0.362498 0.837299
1797 1 0.960489 0.344718 0.84499
1100 1 0.669115 0.107365 0.97813
874 1 0.150449 0.0578254 0.704823
295 1 0.801494 0.151474 0.848862
316 1 0.0238744 0.0992622 0.626825
735 1 0.977388 0.423195 0.803312
1290 1 0.0694792 0.228471 0.586337
1715 1 0.610076 0.384113 0.554259
669 1 0.596552 0.431346 0.860094
992 1 0.11917 0.011849 0.790823
1837 1 0.941172 0.408913 0.587633
177 1 0.841571 0.36057 0.929864
529 1 0.129054 0.274839 0.849038
1526 1 0.436279 0.0660288 0.847938
1039 1 0.44079 0.236788 0.835177
347 1 0.783765 0.0739145 0.672705
2043 1 0.706586 0.165524 0.600369
1689 1 0.921951 0.121319 0.769968
1269 1 0.0812826 0.164229 0.904945
1814 1 0.0496569 0.144226 0.771846
253 1 0.641982 0.189105 0.85094
309 1 0.0449694 0.220143 0.859965
1503 1 0.568953 0.44083 0.671705
446 1 0.304904 0.16459 0.868573
1788 1 0.504443 0.125085 0.929692
384 1 0.829956 0.26109 0.83174
385 1 0.0442304 0.382311 0.965319
1446 1 0.027959 0.172255 0.618083
509 1 0.19985 0.069708 0.889991
1743 1 0.447194 0.132118 0.603141
581 1 0.620573 0.162909 0.944284
2016 1 0.426746 0.209977 0.735159
435 1 0.97215 0.340353 0.771925
1222 1 0.858563 0.422911 0.539703
1086 1 0.52744 0.417486 0.614889
637 1 0.984363 0.478237 0.643999
1909 1 0.789687 0.299865 0.760774
1371 1 0.153437 0.297369 0.973413
1769 1 0.102622 0.147451 0.839092
1226 1 0.513994 0.158675 0.864579
791 1 0.624406 0.388422 0.930645
1374 1 0.612806 0.052151 0.803971
1524 1 0.397075 0.289956 0.648205
823 1 0.5081 0.217655 0.693051
368 1 0.511661 0.330614 0.926878
370 1 0.507205 0.310161 0.707169
322 1 0.522434 0.242154 0.933452
973 1 0.940227 0.262313 0.665139
1090 1 0.580896 0.0182126 0.565494
1488 1 0.0793786 0.270362 0.89786
119 1 0.330002 0.0929356 0.672912
1945 1 0.393203 0.0673021 0.568043
1552 1 0.186609 0.0473838 0.963328
865 1 0.360054 0.244731 0.595526
70 1 0.458146 0.451943 0.812496
510 1 0.447643 0.0647001 0.777796
1499 1 0.337974 0.416507 0.722486
1727 1 0.933764 0.16662 0.920782
1493 1 0.512975 0.256957 0.862568
1819 1 0.560295 0.497753 0.632936
1117 1 0.960558 0.124433 0.641544
1424 1 0.588378 0.128293 0.797268