LAMMPS (15 Sep 2022)
OMP_NUM_THREADS environment is not set. Defaulting to 1 thread. (src/comm.cpp:98)
  using 1 OpenMP thread(s) per MPI task
# 2d WCA system, random initial configuration

#variable density equal 0.5
variable initial_temperature equal 3.0
variable final_temperature equal 0.1
variable dt equal 0.01
variable tau equal 100*${dt}
variable tau equal 100*0.01
variable thermo_time equal 50000*${dt}
variable thermo_time equal 50000*0.01
variable equil_steps equal 50000
variable run_steps equal 100000

units           lj
atom_style      atomic
dimension       2

lattice         sq ${density}
lattice         sq 1.05
Lattice spacing in x,y,z = 0.97590007 0.97590007 0.97590007
region          box block 0 20 0 20 -0.5 0.5
# number of atom types
create_box      1 box
Created orthogonal box = (0 0 -0.48795004) to (19.518001 19.518001 0.48795004)
  2 by 2 by 1 MPI processor grid
create_atoms    1 box
Created 400 atoms
  using lattice units in orthogonal box = (0 0 -0.48795004) to (19.518001 19.518001 0.48795004)
  create_atoms CPU = 0.000 seconds
mass 1 1.0

velocity all create ${initial_temperature} 12345
velocity all create 3 12345

pair_style      lj/cut 1.0
#type_1 type_2 epsilon sigma cutoff
pair_coeff      1 1 10.0 0.89089871814 1.0
pair_modify shift yes

timestep ${dt}
timestep 0.01
thermo ${thermo_time}
thermo 500

fix 1 all nvt temp ${initial_temperature} ${initial_temperature} ${tau}
fix 1 all nvt temp 3 ${initial_temperature} ${tau}
fix 1 all nvt temp 3 3 ${tau}
fix 1 all nvt temp 3 3 1
run ${equil_steps}
run 50000
Generated 0 of 0 mixed pair_coeff terms from geometric mixing rule
Neighbor list info ...
  update: every = 1 steps, delay = 0 steps, check = yes
  max neighbors/atom: 2000, page size: 100000
  master list distance cutoff = 1.3
  ghost atom cutoff = 1.3
  binsize = 0.65, bins = 31 31 2
  1 neighbor lists, perpetual/occasional/extra = 1 0 0
  (1) pair lj/cut, perpetual
      attributes: half, newton on
      pair build: half/bin/atomonly/newton
      stencil: half/bin/2d
      bin: standard
Per MPI rank memory allocation (min/avg/max) = 3.049 | 3.049 | 3.049 Mbytes
   Step          Temp          E_pair         E_mol          TotEng         Press     
         0   3              0.49691281     0              3.4894128      26.133426    
       500   3.2748027      1.5912094      0              4.857825       34.450273    
      1000   3.3315128      1.6256423      0              4.9488263      35.583902    
      1500   3.3673331      1.737054       0              5.0959688      36.036292    
      2000   3.1804674      1.5087832      0              4.6812994      33.815647    
      2500   2.9056189      1.692544       0              4.5908989      34.662319    
      3000   3.002233       1.5744327      0              4.5691601      33.450517    
      3500   2.9936634      1.6604466      0              4.6466258      35.078906    
      4000   2.846139       1.816425       0              4.6554487      37.276043    
      4500   2.869834       1.8811537      0              4.7438131      38.251036    
      5000   2.9996955      1.5997014      0              4.5918976      33.74687     
      5500   3.0116021      1.8422031      0              4.8462762      37.878235    
      6000   3.2362395      1.7405832      0              4.9687321      37.796987    
      6500   2.8320493      1.7188385      0              4.5438076      36.042061    
      7000   3.1850494      1.5348089      0              4.7118957      33.666434    
      7500   3.1420025      1.7668635      0              4.901011       36.486969    
      8000   3.2631807      1.8510788      0              5.1061015      37.724734    
      8500   3.2518082      1.6939268      0              4.9376054      35.511657    
      9000   3.2054148      1.9984303      0              5.1958315      39.9714      
      9500   2.9584361      1.6737949      0              4.6248349      35.13612     
     10000   2.9104375      1.7221877      0              4.6253491      35.412496    
     10500   2.798148       1.7447111      0              4.5358638      35.832683    
     11000   2.7999398      1.703293       0              4.4962329      35.32768     
     11500   2.9044207      1.6261433      0              4.5233029      34.072696    
     12000   3.113827       1.6535706      0              4.759613       35.570759    
     12500   3.116639       1.8059716      0              4.914819       37.048566    
     13000   3.0222808      1.7137663      0              4.7284914      34.987464    
     13500   3.3022719      1.7858243      0              5.0798406      37.470948    
     14000   3.089031       1.4716763      0              4.5529847      32.509326    
     14500   3.0263285      1.6502497      0              4.6690123      34.880206    
     15000   3.01558        1.6608029      0              4.668844       34.142824    
     15500   2.896391       1.704602       0              4.5937519      35.580809    
     16000   3.1488115      1.5039373      0              4.6448768      33.109242    
     16500   3.0366396      1.5283174      0              4.5573654      33.614333    
     17000   2.8597188      1.6922049      0              4.5447744      35.533159    
     17500   2.7997058      1.7668481      0              4.5595546      36.642014    
     18000   2.6760714      1.9256103      0              4.5949915      38.133386    
     18500   2.9828743      1.862424       0              4.8378412      38.179948    
     19000   3.2002656      1.7269906      0              4.9192555      35.951662    
     19500   3.2030402      1.5044949      0              4.6995275      33.657059    
     20000   2.9445829      1.8648604      0              4.8020818      37.956137    
     20500   3.2177375      1.8306153      0              5.0403084      37.31843     
     21000   2.9179115      1.6935258      0              4.6041425      35.29886     
     21500   3.0189146      1.6250003      0              4.6363676      34.639118    
     22000   3.0763301      1.3730031      0              4.4416424      31.320993    
     22500   2.8703791      1.8950623      0              4.7582654      37.485581    
     23000   3.0399723      1.5494116      0              4.5817841      32.865684    
     23500   2.9024308      1.7157072      0              4.610882       35.01489     
     24000   2.8958354      1.7232276      0              4.6118233      35.007896    
     24500   3.0780934      1.7228536      0              4.7932517      36.347739    
     25000   2.8724027      1.4267037      0              4.2919254      30.993109    
     25500   3.0764172      1.498193       0              4.5669191      32.989926    
     26000   2.8357391      1.584992       0              4.4136418      33.523923    
     26500   3.1280623      1.6910183      0              4.8112605      36.147471    
     27000   2.9211954      1.5934886      0              4.5073811      34.75651     
     27500   2.5718807      1.6097468      0              4.1751978      33.705838    
     28000   2.7251859      1.7928271      0              4.5112001      36.578917    
     28500   2.8794275      1.7112839      0              4.5835128      36.364079    
     29000   3.0221967      1.5061268      0              4.520768       32.559556    
     29500   3.0705515      1.707358       0              4.7702331      34.923386    
     30000   3.0879606      1.9487949      0              5.0290356      38.771686    
     30500   2.8549121      1.7015278      0              4.5493026      35.514601    
     31000   2.8765103      1.6956393      0              4.5649583      34.701197    
     31500   3.0915503      1.4836832      0              4.5675046      32.679312    
     32000   3.395808       1.4344251      0              4.8217436      32.885451    
     32500   2.8430517      1.2913771      0              4.1273211      29.46085     
     33000   2.9434531      1.5344084      0              4.4705028      32.860248    
     33500   2.9594453      1.8049188      0              4.7569654      36.656743    
     34000   2.885152       1.859413       0              4.7373521      37.139665    
     34500   3.0736272      1.9582652      0              5.0242083      38.381704    
     35000   3.3946982      1.556014       0              4.9422254      34.011842    
     35500   2.8991676      2.0538731      0              4.9457928      39.407516    
     36000   3.1264522      1.5598405      0              4.6784765      34.74333     
     36500   3.128205       1.5889516      0              4.7093362      34.824847    
     37000   3.0013248      1.6561554      0              4.6499768      35.182054    
     37500   2.8217811      1.8287238      0              4.6434504      37.905818    
     38000   2.9968237      1.6474746      0              4.6368062      34.444308    
     38500   2.7776195      1.7252798      0              4.4959552      35.900008    
     39000   3.0093435      1.5488739      0              4.5506941      33.493319    
     39500   2.8757287      1.7592892      0              4.6278286      35.900284    
     40000   2.842301       1.5948566      0              4.4300518      33.634415    
     40500   3.0470911      1.6755866      0              4.71506        35.412406    
     41000   3.2531905      1.6870717      0              4.9321292      35.660723    
     41500   3.1155715      1.7807859      0              4.8885685      36.103136    
     42000   3.273678       1.7761582      0              5.041652       37.227143    
     42500   3.1005454      1.5381997      0              4.6309937      33.268412    
     43000   3.0986257      1.6072799      0              4.6981591      34.250824    
     43500   2.9864513      1.5522997      0              4.5312849      33.38369     
     44000   2.7504571      1.7906686      0              4.5342495      35.784123    
     44500   2.7683349      1.7309955      0              4.4924096      35.599593    
     45000   3.1501038      1.3808003      0              4.5230289      31.400798    
     45500   2.8855878      1.6930029      0              4.5713767      35.815631    
     46000   3.0844699      1.5637955      0              4.6405542      34.011875    
     46500   3.1341926      1.4977119      0              4.6240691      32.920762    
     47000   2.8511572      1.4080148      0              4.2520441      31.025895    
     47500   2.8057902      1.670498       0              4.4692737      34.567268    
     48000   2.9229485      1.736223       0              4.6518642      35.426144    
     48500   3.069044       1.6542837      0              4.7156551      34.039195    
     49000   2.9478135      1.6727517      0              4.6131956      34.901482    
     49500   3.0219523      1.8315649      0              4.8459623      37.181599    
     50000   2.8720522      1.7504454      0              4.6153174      36.648494    
Loop time of 0.90947 on 4 procs for 50000 steps with 400 atoms

Performance: 47500178.148 tau/day, 54977.058 timesteps/s, 21.991 Matom-step/s
99.4% CPU use with 4 MPI tasks x 1 OpenMP threads

MPI task timing breakdown:
Section |  min time  |  avg time  |  max time  |%varavg| %total
---------------------------------------------------------------
Pair    | 0.17545    | 0.18417    | 0.20112    |   2.3 | 20.25
Neigh   | 0.20023    | 0.20424    | 0.20866    |   0.7 | 22.46
Comm    | 0.30367    | 0.32292    | 0.33185    |   2.0 | 35.51
Output  | 0.00072833 | 0.0017834  | 0.004939   |   4.3 |  0.20
Modify  | 0.1169     | 0.11801    | 0.11984    |   0.3 | 12.98
Other   |            | 0.07835    |            |       |  8.61

Nlocal:            100 ave         102 max          97 min
Histogram: 1 0 0 0 0 0 1 0 1 1
Nghost:             61 ave          63 max          59 min
Histogram: 1 0 0 0 0 2 0 0 0 1
Neighs:         283.75 ave         294 max         274 min
Histogram: 2 0 0 0 0 0 0 0 0 2

Total # of neighbors = 1135
Ave neighs/atom = 2.8375
Neighbor list builds = 16860
Dangerous builds = 0

unfix 1
dump           1 all atom ${run_steps} 2dWCA_T${final_temperature}_d${density}_N${run_steps}.lammpstrj
dump           1 all atom 100000 2dWCA_T${final_temperature}_d${density}_N${run_steps}.lammpstrj
dump           1 all atom 100000 2dWCA_T0.1_d${density}_N${run_steps}.lammpstrj
dump           1 all atom 100000 2dWCA_T0.1_d1.05_N${run_steps}.lammpstrj
dump           1 all atom 100000 2dWCA_T0.1_d1.05_N100000.lammpstrj
dump           2 all dcd ${thermo_time} 2dWCA_T${final_temperature}_d${density}_N${run_steps}.dcd
dump           2 all dcd 500 2dWCA_T${final_temperature}_d${density}_N${run_steps}.dcd
dump           2 all dcd 500 2dWCA_T0.1_d${density}_N${run_steps}.dcd
dump           2 all dcd 500 2dWCA_T0.1_d1.05_N${run_steps}.dcd
dump           2 all dcd 500 2dWCA_T0.1_d1.05_N100000.dcd
fix 1 all nvt temp ${initial_temperature} ${final_temperature} ${tau}
fix 1 all nvt temp 3 ${final_temperature} ${tau}
fix 1 all nvt temp 3 0.1 ${tau}
fix 1 all nvt temp 3 0.1 1

run ${run_steps}
run 100000
Generated 0 of 0 mixed pair_coeff terms from geometric mixing rule
Per MPI rank memory allocation (min/avg/max) = 3.076 | 3.076 | 3.076 Mbytes
   Step          Temp          E_pair         E_mol          TotEng         Press     
     50000   2.8720522      1.7504454      0              4.6153174      36.648494    
     50500   2.7799776      1.6558511      0              4.4288787      34.939808    
     51000   2.8861097      1.6131173      0              4.4920117      34.050149    
     51500   2.9704587      1.4943681      0              4.4574006      32.356278    
     52000   3.0994966      1.6226551      0              4.714403       33.758172    
     52500   2.8467463      1.6164977      0              4.4561271      34.226173    
     53000   2.928697       1.5044194      0              4.4257946      32.602202    
     53500   3.0005095      1.3429653      0              4.3359735      30.425893    
     54000   2.8480689      1.5882431      0              4.4291919      33.390351    
     54500   2.8779857      1.624931       0              4.4957218      34.252044    
     55000   3.0570533      1.6622599      0              4.7116706      34.459304    
     55500   2.7655456      1.2682783      0              4.02691        29.322204    
     56000   2.9572082      1.2799118      0              4.229727       29.085198    
     56500   2.7402756      1.495819       0              4.2292439      32.57127     
     57000   2.9518067      1.3414132      0              4.2858403      30.535966    
     57500   2.9936966      1.5709149      0              4.5571273      33.794574    
     58000   2.953859       1.6615721      0              4.6080464      33.957144    
     58500   2.8360859      1.4789103      0              4.307906       32.718654    
     59000   2.997752       1.46609        0              4.4563476      31.954563    
     59500   2.7570383      1.4896733      0              4.2398191      32.268806    
     60000   2.8278733      1.6196183      0              4.440422       33.409048    
     60500   2.7988813      1.5710404      0              4.3629245      33.710778    
     61000   2.8188239      1.5354883      0              4.3472652      33.787074    
     61500   2.6462889      1.6493851      0              4.2890583      34.56782     
     62000   2.6574656      1.5140276      0              4.1648495      32.703332    
     62500   2.5468824      1.4564511      0              3.9969663      32.541955    
     63000   2.5077824      1.4758457      0              3.9773586      32.11459     
     63500   2.4779188      1.366882       0              3.838606       30.77307     
     64000   2.5998354      1.3742614      0              3.9675972      30.086652    
     64500   2.4561857      1.6225644      0              4.0726096      34.203204    
     65000   2.6625564      1.3422969      0              3.9981969      30.142004    
     65500   2.5978137      1.5943784      0              4.1856976      33.71638     
     66000   2.4896235      1.4202723      0              3.9036717      30.747779    
     66500   2.4575679      1.2506904      0              3.7021144      29.021124    
     67000   2.4729975      1.3643086      0              3.8311236      29.912682    
     67500   2.5945236      1.2383542      0              3.8263915      28.659488    
     68000   2.4204168      1.3121427      0              3.7265085      28.97732     
     68500   2.2534006      1.4133523      0              3.6611194      30.548018    
     69000   2.4149192      1.1565776      0              3.5654594      27.479       
     69500   2.3569146      1.2670899      0              3.6181122      28.934232    
     70000   2.3786493      1.3883088      0              3.7610114      30.252949    
     70500   2.369898       1.3020648      0              3.6660381      28.698198    
     71000   2.5757785      1.2693874      0              3.8387265      28.949494    
     71500   2.5373066      1.2241052      0              3.7550685      28.87824     
     72000   2.2807634      1.3025614      0              3.5776229      28.656398    
     72500   2.3013533      1.1938375      0              3.4894374      27.377285    
     73000   2.1833976      1.2312398      0              3.4091789      27.431182    
     73500   2.1446681      1.1930584      0              3.3323649      27.282232    
     74000   2.2709281      1.0907476      0              3.3559983      26.367491    
     74500   2.223284       1.0859504      0              3.3036762      26.074778    
     75000   2.346932       1.0969068      0              3.4379715      26.376939    
     75500   2.10935        1.0986708      0              3.2027474      25.947532    
     76000   2.2533134      1.0662085      0              3.3138887      25.722826    
     76500   1.9812001      1.2064101      0              3.1826572      27.611349    
     77000   2.2930231      1.0005689      0              3.2878595      25.091899    
     77500   2.1933924      1.1147244      0              3.3026333      26.082112    
     78000   2.4539991      1.3252996      0              3.7731636      29.593567    
     78500   2.1114402      1.2647459      0              3.3709075      28.294057    
     79000   2.2412686      1.0978829      0              3.3335483      26.151114    
     79500   2.128334       1.1639734      0              3.2869866      26.124856    
     80000   2.2165534      0.988051       0              3.199063       24.47133     
     80500   2.3482856      1.0221194      0              3.3645343      25.784635    
     81000   2.2043118      1.1021535      0              3.3009545      25.713378    
     81500   2.1791217      1.0878501      0              3.261524       25.769042    
     82000   1.9790799      1.0006782      0              2.9748104      24.181616    
     82500   2.0087601      0.91399255     0              2.9177307      23.178301    
     83000   1.9301066      1.0372605      0              2.9625418      24.236987    
     83500   2.0254063      1.0488058      0              3.0691487      25.610292    
     84000   2.0187787      1.1199074      0              3.1336391      25.642496    
     84500   2.3261635      1.0921139      0              3.412462       26.147301    
     85000   2.0090176      1.0090452      0              3.0130402      24.662906    
     85500   1.9359601      1.0531329      0              2.9842532      25.253286    
     86000   1.8964545      1.1076897      0              2.9994031      26.173901    
     86500   1.8470266      0.99502085     0              2.8374299      24.199672    
     87000   1.8015447      0.98414155     0              2.7811824      24.192612    
     87500   1.7252525      0.85846818     0              2.5794076      21.650835    
     88000   1.9107237      0.9810079      0              2.8869548      23.952385    
     88500   1.8862496      1.0096013      0              2.8911352      24.291729    
     89000   1.9180552      1.0736765      0              2.9869365      25.58976     
     89500   1.9571091      1.1183718      0              3.0705882      26.594322    
     90000   2.0169893      0.97615668     0              2.9881035      24.199734    
     90500   1.8602646      1.0174838      0              2.8730978      24.605131    
     91000   1.7905854      1.0378388      0              2.8239477      24.796682    
     91500   1.8747689      0.91287882     0              2.7829608      23.123131    
     92000   1.6960021      0.91833808     0              2.6101001      22.459932    
     92500   1.6508622      0.84210725     0              2.4888423      21.349975    
     93000   1.6287761      0.87898403     0              2.5036882      21.844642    
     93500   1.6874716      0.88933252     0              2.5725855      22.843525    
     94000   1.6936264      0.91969875     0              2.609091       22.926788    
     94500   1.8410293      0.84654974     0              2.6829764      21.737896    
     95000   1.6808929      0.86374389     0              2.5404345      21.913059    
     95500   1.5534952      0.93072403     0              2.4803355      22.560501    
     96000   1.6808323      0.8006512      0              2.4772814      21.043324    
     96500   1.6413691      0.74267798     0              2.3799437      19.940057    
     97000   1.5685641      0.61845542     0              2.1830981      17.337795    
     97500   1.5199689      0.8553278      0              2.3714968      21.608156    
     98000   1.5957389      0.77481371     0              2.3665632      20.43077     
     98500   1.7319323      0.75779949     0              2.4854019      19.965262    
     99000   1.7253025      0.81781857     0              2.5388078      21.083739    
     99500   1.6179117      0.8010713      0              2.4149382      20.262001    
    100000   1.5702181      0.82479109     0              2.3910837      21.379443    
    100500   1.5707949      0.80212243     0              2.3689903      20.737465    
    101000   1.5085438      0.78902885     0              2.2938013      20.568669    
    101500   1.4325652      0.66329375     0              2.0922775      18.357878    
    102000   1.5044252      0.56311035     0              2.0637744      16.583933    
    102500   1.4263795      0.66925353     0              2.0920671      17.692895    
    103000   1.4102272      0.71559973     0              2.1223014      19.156285    
    103500   1.4500075      0.70468374     0              2.1510663      18.877814    
    104000   1.4835698      0.71643953     0              2.1963005      19.425769    
    104500   1.3425475      0.77708581     0              2.116277       20.157146    
    105000   1.4086873      0.56133307     0              1.9664987      16.034331    
    105500   1.3724923      0.63911848     0              2.0081796      17.79065     
    106000   1.3888145      0.63972209     0              2.0250646      18.138567    
    106500   1.3104929      0.74882546     0              2.0560421      19.453329    
    107000   1.4491893      0.71658636     0              2.1621527      19.381437    
    107500   1.3715928      0.77912975     0              2.1472935      20.514512    
    108000   1.2988774      0.67566994     0              1.9713002      18.52327     
    108500   1.2650746      0.64544536     0              1.9073573      17.610642    
    109000   1.3420572      0.56785245     0              1.9065545      17.034485    
    109500   1.3255343      0.54956611     0              1.8717866      16.532192    
    110000   1.2353648      0.5994297      0              1.8317061      17.057039    
    110500   1.1391249      0.50021734     0              1.6364944      15.504919    
    111000   1.1575281      0.60240756     0              1.7570419      16.915992    
    111500   1.1583432      0.61516372     0              1.7706111      17.620916    
    112000   1.3022529      0.55899548     0              1.8579928      16.44488     
    112500   1.2569827      0.52660059     0              1.7804408      16.238233    
    113000   1.2140417      0.55464659     0              1.7656532      16.425375    
    113500   1.2115618      0.50675661     0              1.7152895      15.636085    
    114000   1.2006761      0.56876545     0              1.7664399      16.138568    
    114500   1.127738       0.51935965     0              1.6442783      15.647628    
    115000   1.1133827      0.50223535     0              1.6128346      14.790012    
    115500   1.0807368      0.47670826     0              1.5547432      14.442158    
    116000   1.0216589      0.49434628     0              1.513451       15.00779     
    116500   1.0513248      0.43739519     0              1.4860917      13.947189    
    117000   1.0155021      0.41583227     0              1.4287956      13.686785    
    117500   0.95327827     0.46308247     0              1.4139775      14.221028    
    118000   1.0408513      0.45193213     0              1.4901813      13.817019    
    118500   1.0152452      0.52616257     0              1.5388697      15.190815    
    119000   0.9913707      0.46590998     0              1.4548023      14.445537    
    119500   0.98015899     0.44245669     0              1.4201653      13.800321    
    120000   0.93893588     0.47596497     0              1.4125535      14.537482    
    120500   0.91860436     0.4589284      0              1.3752363      14.226769    
    121000   0.88155823     0.4844098      0              1.3637641      14.23506     
    121500   0.92648289     0.41887868     0              1.3430454      13.145331    
    122000   0.80124924     0.29015967     0              1.0894058      10.368334    
    122500   0.86773552     0.43119363     0              1.2967598      13.444888    
    123000   0.92360652     0.4122267      0              1.3335242      12.88819     
    123500   0.86833512     0.41425101     0              1.2804153      13.19911     
    124000   0.87744589     0.4385643      0              1.3138166      13.63552     
    124500   0.93859647     0.36102776     0              1.2972777      12.106894    
    125000   0.897998       0.33441774     0              1.2301707      11.283328    
    125500   0.81255883     0.37288574     0              1.1834132      12.479482    
    126000   0.81523791     0.35385332     0              1.1670531      11.399281    
    126500   0.79287846     0.37534867     0              1.1662449      12.278589    
    127000   0.74248384     0.38147814     0              1.1221058      11.900537    
    127500   0.77632382     0.31848463     0              1.0928676      10.853509    
    128000   0.72322949     0.30528953     0              1.0267109      10.3721      
    128500   0.70078231     0.2858759      0              0.98490625     10.45679     
    129000   0.66830581     0.23774794     0              0.90438299     9.3314211    
    129500   0.64375542     0.27776974     0              0.91991577     10.080969    
    130000   0.65449926     0.27643416     0              0.92929717     9.9475594    
    130500   0.68255583     0.28242658     0              0.96327602     10.000398    
    131000   0.70196653     0.29220485     0              0.99241646     10.096572    
    131500   0.69167105     0.28084141     0              0.97078328     9.8441846    
    132000   0.66834191     0.28910876     0              0.95577981     10.356581    
    132500   0.63498926     0.27837936     0              0.91178115     10.504276    
    133000   0.60659868     0.26379092     0              0.8688731      9.7115893    
    133500   0.57628242     0.25848377     0              0.83332548     9.6627737    
    134000   0.62020285     0.2005452      0              0.81919754     8.3679162    
    134500   0.54546698     0.24556462     0              0.78966793     9.2799631    
    135000   0.50264333     0.23875234     0              0.74013906     9.1239465    
    135500   0.51085608     0.19029249     0              0.69987143     7.9195792    
    136000   0.50547676     0.1967614      0              0.70097447     7.7056688    
    136500   0.4674188      0.21091073     0              0.67716098     8.1001167    
    137000   0.4605129      0.18529956     0              0.64466118     7.6153393    
    137500   0.43363105     0.19344067     0              0.62598764     8.0223719    
    138000   0.40856707     0.18558909     0              0.59313475     7.6206153    
    138500   0.38725655     0.17868168     0              0.56497009     7.4481072    
    139000   0.39265809     0.14486375     0              0.5365402      6.452814     
    139500   0.36706795     0.15766255     0              0.52381283     6.9505315    
    140000   0.35595626     0.14356983     0              0.4986362      6.3996426    
    140500   0.37334096     0.13700018     0              0.50940779     6.1301177    
    141000   0.38860573     0.13237185     0              0.52000607     6.2501007    
    141500   0.37948057     0.10011995     0              0.47865182     5.2663398    
    142000   0.33291557     0.12979168     0              0.46187496     5.8719971    
    142500   0.31679225     0.10939834     0              0.42539862     5.6063789    
    143000   0.28719095     0.11926528     0              0.40573826     5.7320532    
    143500   0.27891828     0.1000626      0              0.37828359     4.9936858    
    144000   0.27651207     0.081742277    0              0.35756306     4.3912029    
    144500   0.2497202      0.079477424    0              0.32857332     4.4503875    
    145000   0.23748547     0.077872399    0              0.31476415     4.3588715    
    145500   0.22045548     0.077725677    0              0.29763002     4.1834117    
    146000   0.22140354     0.056499909    0              0.27734994     3.5528625    
    146500   0.19722855     0.059997587    0              0.25673307     3.7610536    
    147000   0.17975848     0.057572627    0              0.23688171     3.2513685    
    147500   0.16749119     0.051087562    0              0.21816002     3.2280915    
    148000   0.16014443     0.040085627    0              0.1998297      2.7091015    
    148500   0.14176088     0.04062774     0              0.18203422     2.930087     
    149000   0.13213382     0.032846611    0              0.1646501      2.4228157    
    149500   0.11778254     0.026666669    0              0.14415475     2.143987     
    150000   0.11042801     0.0296086      0              0.13976054     2.1401783    
Loop time of 1.578 on 4 procs for 100000 steps with 400 atoms

Performance: 54752761.905 tau/day, 63371.252 timesteps/s, 25.349 Matom-step/s
99.4% CPU use with 4 MPI tasks x 1 OpenMP threads

MPI task timing breakdown:
Section |  min time  |  avg time  |  max time  |%varavg| %total
---------------------------------------------------------------
Pair    | 0.32348    | 0.33763    | 0.36286    |   2.6 | 21.40
Neigh   | 0.26442    | 0.26936    | 0.27445    |   0.7 | 17.07
Comm    | 0.55871    | 0.58735    | 0.6017     |   2.2 | 37.22
Output  | 0.010311   | 0.010467   | 0.010928   |   0.3 |  0.66
Modify  | 0.23055    | 0.23387    | 0.238      |   0.6 | 14.82
Other   |            | 0.1393     |            |       |  8.83

Nlocal:            100 ave         103 max          98 min
Histogram: 2 0 0 0 0 0 1 0 0 1
Nghost:          60.75 ave          62 max          59 min
Histogram: 1 0 0 0 0 0 2 0 0 1
Neighs:          297.5 ave         307 max         287 min
Histogram: 1 0 1 0 0 0 0 0 0 2

Total # of neighbors = 1190
Ave neighs/atom = 2.975
Neighbor list builds = 23674
Dangerous builds = 0
Total wall time: 0:00:02
